TITLE      =  "2D FE Unstructured grid data" 
VARIABLES = "X", "Y", "U", "Dom" 
ZONE T="P1", F=FEPOINT, N= 7009 E= 13728  ET=TRIANGLE 
 2.266543 4.837543 7.104090 0
 2.354569 4.780239 7.134809 0
 2.362011 4.940258 7.302273 0
 2.475768 4.831185 7.306957 0
 0.949779 3.404397 4.354170 0
 1.054199 3.509120 4.563314 0
 0.863356 3.491082 4.354433 0
 4.197526 1.870366 6.067813 0
 4.205878 1.765920 5.971724 0
 4.353964 1.802044 6.155930 0
 8.136876 4.213919 12.350757 0
 8.233779 4.208621 12.442358 0
 8.197956 4.353964 12.551871 0
 2.317473 7.078120 9.395660 0
 2.417764 7.184912 9.602732 0
 2.250142 7.195615 9.445814 0
 2.313748 7.309247 9.623053 0
 9.189115 7.268899 16.457994 0
 9.026397 7.154194 16.180555 0
 9.203280 7.127573 16.330820 0
 9.066470 7.300193 16.366619 0
 6.701519 1.785672 8.487143 0
 6.879232 1.891371 8.770562 0
 6.723532 1.909799 8.633279 0
 6.805418 1.728012 8.533384 0
 0.929897 3.592054 4.521948 0
 5.221864 8.314909 13.536762 0
 5.194563 8.453780 13.648336 0
 5.103426 8.308444 13.411870 0
 8.247979 6.817800 15.065734 0
 8.113981 6.873288 14.987218 0
 8.217145 6.704888 14.921988 0
 8.089259 6.724121 14.813331 0
 5.039473 8.409187 13.448650 0
 8.863484 7.510697 16.374151 0
 8.787069 7.324305 16.111336 0
 8.909194 7.389845 16.299011 0
 8.739079 7.475795 16.214838 0
 6.567963 2.290683 8.858588 0
 6.680757 2.396833 9.077534 0
 6.582386 2.496284 9.078611 0
 6.484631 2.419052 8.903616 0
 1.447017 5.148707 6.595739 0
 1.284539 5.081104 6.365651 0
 1.429996 5.052123 6.482129 0
 4.266956 1.957000 6.223877 0
 8.043000 4.266956 12.309909 0
 3.232097 6.046488 9.278609 0
 3.313665 6.154677 9.468369 0
 3.153175 6.102249 9.255452 0
 4.843771 7.742307 12.586080 0
 4.766234 7.666049 12.432281 0
 4.942622 7.631082 12.573698 0
 5.021739 1.179394 6.201085 0
 4.893626 1.277357 6.170926 0
 4.907285 1.106014 6.013247 0
 8.820605 5.021739 13.842299 0
 8.722643 4.893626 13.616223 0
 8.893986 4.907285 13.801230 0
 4.792192 8.827494 13.619680 0
 4.900336 8.739722 13.640058 0
 4.900708 8.889679 13.790375 0
 3.173663 6.202900 9.376594 0
 4.807293 1.166631 5.973869 0
 8.833369 4.807293 13.640625 0
 5.018963 8.822566 13.841525 0
 0.316807 3.985194 4.302003 0
 0.296819 4.080687 4.377507 0
 0.191424 3.991625 4.183049 0
 2.064463 5.800741 7.865236 0
 1.933685 5.698942 7.632661 0
 2.098961 5.691370 7.790362 0
 5.257092 4.951127 10.208150 0
 5.213462 4.793371 10.006765 0
 5.330429 4.858052 10.188410 0
 6.324848 6.482803 12.807582 0
 6.340768 6.646847 12.987548 0
 6.250611 6.565264 12.815811 0
 2.457381 7.696479 10.153913 0
 2.330687 7.682017 10.012765 0
 2.433056 7.563674 9.996787 0
 4.508610 1.716591 6.225128 0
 4.403931 1.670555 6.074416 0
 4.564542 1.598689 6.163160 0
 8.283409 4.508610 12.791972 0
 8.329446 4.403931 12.733327 0
 8.401311 4.564542 12.965808 0
 1.372061 5.212504 6.584580 0
 4.518532 9.039821 13.558353 0
 4.623083 9.182564 13.805646 0
 4.474886 9.182805 13.657690 0
 4.643481 9.022559 13.666037 0
 3.309231 5.982487 9.291742 0
 3.141533 5.941434 9.082993 0
 6.442039 2.093051 8.535022 0
 6.397256 1.985062 8.382256 0
 6.536678 1.996341 8.532962 0
 0.804761 8.931736 9.736530 0
 0.883450 9.033758 9.917233 0
 0.731714 9.012262 9.744002 0
 1.945885 5.835670 7.781586 0
 4.821928 7.549235 12.371158 0
 2.778845 2.835404 5.614190 0
 2.722581 2.737618 5.460140 0
 2.902174 2.798072 5.700179 0
 7.164596 2.778845 9.943394 0
 7.262382 2.722581 9.984916 0
 7.201928 2.902174 10.104052 0
 3.291459 5.875754 9.167229 0
 6.801157 9.515192 16.316338 0
 6.687997 9.444273 16.132254 0
 6.839583 9.404687 16.244261 0
 6.515219 5.280851 11.795989 0
 6.635678 5.241629 11.877229 0
 6.685428 5.362820 12.048167 0
 6.547130 9.231997 15.779106 0
 6.642835 9.095756 15.738572 0
 6.670410 9.223898 15.894295 0
 3.984750 9.683025 13.667777 0
 4.081141 9.703469 13.784615 0
 3.991364 9.808573 13.799945 0
 0.396185 2.183249 2.579431 0
 0.485793 2.257014 2.742802 0
 0.408222 2.362005 2.770224 0
 1.124692 2.502292 3.626967 0
 1.228799 2.671952 3.900733 0
 1.078740 2.622919 3.701642 0
 4.428215 1.553005 5.981154 0
 8.446996 4.428215 12.875170 0
 6.759707 9.315547 16.075243 0
 5.530592 1.588824 7.119349 0
 5.418162 1.689044 7.107136 0
 5.438151 1.531744 6.969831 0
 1.597471 5.537529 7.135025 0
 1.534143 5.440955 6.975117 0
 1.696365 5.417908 7.114299 0
 2.866452 6.026040 8.892525 0
 2.981438 5.978270 8.959739 0
 2.938483 6.124635 9.063150 0
 6.025010 7.132655 13.157609 0
 5.983438 7.024341 13.007725 0
 6.124147 7.063564 13.187651 0
 5.151765 4.907310 10.059005 0
 5.320665 1.604995 6.925590 0
 1.605105 5.323936 6.929060 0
 1.260920 2.524205 3.785105 0
 9.238634 6.557529 15.796130 0
 9.209997 6.687902 15.897866 0
 9.073569 6.634866 15.708401 0
 2.799273 2.657090 5.456298 0
 7.342909 2.799273 10.142140 0
 2.215323 8.693197 10.908568 0
 2.352635 8.589117 10.941795 0
 2.338058 8.714190 11.052297 0
 6.542043 2.143331 8.685314 0
 2.045098 3.303173 5.348236 0
 2.145648 3.373467 5.519074 0
 1.976770 3.446197 5.422934 0
 3.052152 6.061598 9.113777 0
 6.063959 6.945081 13.008985 0
 3.044516 8.797724 11.842281 0
 2.927110 8.801484 11.728642 0
 2.978158 8.659540 11.637740 0
 2.395749 6.336443 8.732240 0
 2.472568 6.425853 8.898462 0
 2.316118 6.431808 8.747972 0
 6.336443 7.604251 13.940649 0
 6.425355 7.527565 13.952867 0
 6.428321 7.684815 14.113091 0
 0.813117 9.117463 9.930614 0
 1.470755 6.498024 7.968822 0
 1.542161 6.396385 7.938588 0
 1.577821 6.558721 8.136585 0
 3.125738 8.723030 11.848802 0
 6.546347 5.390184 11.936451 0
 0.307372 2.242768 2.550138 0
 8.098322 8.315125 16.413424 0
 8.191681 8.238590 16.430244 0
 8.229992 8.408799 16.638767 0
 0.208946 4.153841 4.362787 0
 1.891838 1.660905 3.552711 0
 1.812134 1.749249 3.561350 0
 1.768777 1.588196 3.356944 0
 8.339095 1.891838 10.230910 0
 8.250751 1.812134 10.062860 0
 8.411804 1.768777 10.180565 0
 9.437507 7.231271 16.668755 0
 9.319554 7.073822 16.393351 0
 9.461488 7.110020 16.571486 0
 9.295344 7.235176 16.530504 0
 1.659293 6.444950 8.104286 0
 2.119670 3.493098 5.612731 0
 5.075511 3.255838 8.331260 0
 4.968703 3.179825 8.148439 0
 5.122739 3.104407 8.227058 0
 8.284565 8.284565 16.569098 0
 2.973837 5.854323 8.828187 0
 2.857029 5.780483 8.637542 0
 3.046258 5.754431 8.800719 0
 1.715435 1.715435 3.430840 0
 8.284565 1.715435 9.999980 0
 2.381827 6.524349 8.906224 0
 6.523942 7.618282 14.142168 0
 7.196783 8.586221 15.782975 0
 7.200417 8.693474 15.893862 0
 7.050214 8.601746 15.651931 0
 4.154042 9.791286 13.945334 0
 1.305696 7.883720 9.189461 0
 1.208009 7.992225 9.200274 0
 1.205268 7.860732 9.066037 0
 2.916168 5.671409 8.587604 0
 6.485560 9.116166 15.601699 0
 2.534269 7.374473 9.908810 0
 2.443488 7.311311 9.754863 0
 2.579876 7.256678 9.836610 0
 6.434163 6.527350 12.961441 0
 1.336604 3.931155 5.267755 0
 1.411892 4.023517 5.435402 0
 1.257768 4.007148 5.264910 0
 1.318588 4.106539 5.425123 0
 1.625208 4.773975 6.399190 0
 1.634479 4.644356 6.278840 0
 1.755826 4.672694 6.428522 0
 1.747181 4.815470 6.562657 0
 2.255517 8.547160 10.802733 0
 8.860770 7.173469 16.034204 0
 8.949093 7.276841 16.225897 0
 5.530718 0.481856 6.012552 0
 5.695170 0.474101 6.169247 0
 5.646289 0.628994 6.275253 0
 1.754323 2.040810 3.795100 0
 1.758451 2.202305 3.960722 0
 1.616540 2.144050 3.760560 0
 7.959190 1.754323 9.713481 0
 7.802344 1.756332 9.558642 0
 7.856203 1.616465 9.472639 0
 7.098999 8.730274 15.829250 0
 4.623034 6.302894 10.925911 0
 4.483908 6.449684 10.933583 0
 4.452465 6.301439 10.753891 0
 2.224255 0.306330 2.530578 0
 2.388637 0.301507 2.690138 0
 2.347324 0.430043 2.777356 0
 9.678115 2.511569 12.189672 0
 9.574879 2.350617 11.925494 0
 9.721053 2.365102 12.086152 0
 0.322056 2.511587 2.833639 0
 0.277052 2.371028 2.648077 0
 2.511587 9.677944 12.189545 0
 2.365838 9.722083 12.087925 0
 2.355013 9.581230 11.936261 0
 3.642383 7.890832 11.533254 0
 3.511250 7.910295 11.421589 0
 3.556786 7.772664 11.329494 0
 3.421979 7.817657 11.239685 0
 4.814559 2.925099 7.739569 0
 4.701535 3.049531 7.750977 0
 4.676769 2.899004 7.575681 0
 2.628444 4.929286 7.557734 0
 2.494393 5.003564 7.497965 0
 6.048975 2.539656 8.588555 0
 6.016453 2.402017 8.418393 0
 6.128496 2.422999 8.551421 0
 3.757726 4.591319 8.349008 0
 3.841367 4.732700 8.574027 0
 3.696275 4.709718 8.405955 0
 0.586217 8.671837 9.258078 0
 0.717139 8.653090 9.370260 0
 0.688054 8.781419 9.469494 0
 8.564707 5.134566 13.699221 0
 8.709617 5.112521 13.822093 0
 8.627939 5.212504 13.840400 0
 4.723909 5.068506 9.792362 0
 4.847394 4.979242 9.826573 0
 4.890870 5.132880 10.023702 0
 5.017903 4.996035 10.013874 0
 2.282214 7.583952 9.866224 0
 2.815677 6.244118 9.059829 0
 2.974875 6.266385 9.241297 0
 2.871979 6.348311 9.220334 0
 6.244118 7.184323 13.428374 0
 6.266187 7.027318 13.293437 0
 6.347591 7.127566 13.475101 0
 3.777970 3.146677 6.924562 0
 3.652420 3.199282 6.851620 0
 3.661256 3.088212 6.749382 0
 6.849532 3.776139 10.625603 0
 6.800718 3.652420 10.453077 0
 6.911029 3.660890 10.571853 0
 3.743002 3.263467 7.006386 0
 3.813725 3.367210 7.180851 0
 3.647573 3.329685 6.977178 0
 4.690049 8.661431 13.351480 0
 4.815514 8.530622 13.346137 0
 4.799302 8.686742 13.486038 0
 2.583424 2.501775 5.085144 0
 2.701661 2.377132 5.078737 0
 2.695099 2.498819 5.193861 0
 7.498225 2.583424 10.081606 0
 7.622765 2.702036 10.324765 0
 7.500171 2.698773 10.198903 0
 8.199057 5.447165 13.646173 0
 8.251304 5.295807 13.547064 0
 8.331640 5.457134 13.788719 0
 1.941770 2.558034 4.499770 0
 1.986268 2.386796 4.373024 0
 2.062971 2.489299 4.552227 0
 7.443472 1.942950 9.386378 0
 7.613626 1.986608 9.600198 0
 7.510754 2.063014 9.573726 0
 4.711200 8.307444 13.018652 0
 4.741633 8.163024 12.904664 0
 4.860852 8.234040 13.094895 0
 8.057467 7.442184 15.499604 0
 8.013730 7.613206 15.626884 0
 7.937085 7.511055 15.448089 0
 0.454521 2.808389 3.262904 0
 0.571388 2.861906 3.433289 0
 0.452134 2.950124 3.402255 0
 0.635702 5.069196 5.704904 0
 0.478251 5.133544 5.611798 0
 0.559542 4.962142 5.521688 0
 5.069196 0.635702 5.704868 0
 4.961960 0.559769 5.521708 0
 5.133544 0.478251 5.611772 0
 9.364298 5.069196 14.433466 0
 9.440231 4.961960 14.402164 0
 9.521749 5.133544 14.655273 0
 3.475663 0.888661 4.364291 0
 3.630861 0.810948 4.441780 0
 3.620797 0.962889 4.583649 0
 9.111339 3.475663 12.586961 0
 9.189052 3.630861 12.819893 0
 9.037111 3.620797 12.657872 0
 0.510559 7.108503 7.619080 0
 0.395163 7.165545 7.560720 0
 0.409375 7.016966 7.426354 0
 4.410115 6.599568 11.009676 0
 4.332772 6.515707 10.848482 0
 4.330570 6.401648 10.732213 0
 9.128688 6.469355 15.598006 0
 5.725996 8.491804 14.217782 0
 5.840215 8.416333 14.256525 0
 5.846289 8.591111 14.437377 0
 5.982413 8.487105 14.469492 0
 9.342519 2.234407 11.576912 0
 9.423470 2.119010 11.542474 0
 9.476007 2.231205 11.707208 0
 2.234407 0.657481 2.891871 0
 2.120073 0.575014 2.695074 0
 2.240137 0.511258 2.751384 0
 7.552849 0.916855 8.469682 0
 7.494326 1.025363 8.519663 0
 7.374181 0.926226 8.300376 0
 6.810746 4.185935 10.996617 0
 6.771570 4.326343 11.097848 0
 6.666837 4.183290 10.850056 0
 1.127223 5.153876 6.281110 0
 1.141149 5.001644 6.142805 0
 2.746652 3.966335 6.712952 0
 2.786584 3.867271 6.653814 0
 2.905543 3.942552 6.848053 0
 6.329707 9.377750 15.707447 0
 6.492596 9.347685 15.840266 0
 6.401016 9.473169 15.874165 0
 3.828752 6.011590 9.840351 0
 3.775733 5.907977 9.683717 0
 3.940711 5.922763 9.863471 0
 2.203551 6.985586 9.189188 0
 2.338772 6.935942 9.274770 0
 2.464019 7.022563 9.486639 0
 6.985586 7.796449 14.781985 0
 6.940618 7.663868 14.604437 0
 7.081625 7.688628 14.770201 0
 7.047115 7.545722 14.592782 0
 7.670910 7.193274 14.864132 0
 7.707360 7.080917 14.788224 0
 7.787960 7.192854 14.980760 0
 7.842743 7.098644 14.941339 0
 2.389450 8.917956 11.307446 0
 2.507951 8.842249 11.350249 0
 2.535382 9.000408 11.535829 0
 4.970822 4.493345 9.464094 0
 5.151458 4.531467 9.682852 0
 5.054547 4.627533 9.682009 0
 6.692447 1.608083 8.300478 0
 5.697073 2.217800 7.914797 0
 5.866033 2.207757 8.073714 0
 5.789660 2.318496 8.108074 0
 1.556666 6.985476 8.542185 0
 1.596790 6.824622 8.421461 0
 1.680047 6.992041 8.672133 0
 1.753950 6.896599 8.650598 0
 1.541535 4.288084 5.829618 0
 1.435274 4.418665 5.853939 0
 1.363267 4.263799 5.627069 0
 5.163724 1.126447 6.290120 0
 5.045081 1.009605 6.054637 0
 8.873552 5.163724 14.037234 0
 8.990396 5.045081 14.035438 0
 3.948256 8.299196 12.247483 0
 3.843820 8.384261 12.228102 0
 3.843518 8.238039 12.081590 0
 3.734205 8.298347 12.032583 0
 0.600051 9.442334 10.042395 0
 0.625002 9.593052 10.218066 0
 0.495180 9.502041 9.997231 0
 6.642293 4.299617 10.941837 0
 4.309810 1.458320 5.768068 0
 4.284656 1.344871 5.629472 0
 4.423867 1.436994 5.860796 0
 8.541680 4.309810 12.851450 0
 8.655129 4.284656 12.939746 0
 8.563005 4.423867 12.986835 0
 3.035245 2.932065 5.967240 0
 2.925088 2.947470 5.872490 0
 7.068633 3.034311 10.102891 0
 7.052530 2.925088 9.977565 0
 3.720820 6.912322 10.633181 0
 3.724187 6.781441 10.505655 0
 3.827966 6.839842 10.667836 0
 6.070206 3.682619 9.752759 0
 6.214737 3.731762 9.946429 0
 6.058446 3.837669 9.896049 0
 6.213589 3.874769 10.088286 0
 3.850509 0.260440 4.110941 0
 3.979503 0.179251 4.158745 0
 4.005759 0.298898 4.304644 0
 9.739560 3.850509 13.590057 0
 9.820748 3.979503 13.800248 0
 9.701102 4.005759 13.706847 0
 0.260440 3.850509 4.110950 0
 1.723917 5.896436 7.620386 0
 1.803463 6.010889 7.814386 0
 1.660720 6.017687 7.678441 0
 1.720692 6.157330 7.878061 0
 6.144520 8.261088 14.405580 0
 6.017505 8.310702 14.328186 0
 6.014330 8.187575 14.201883 0
 5.899400 8.271502 14.170875 0
 2.305840 7.476904 9.782804 0
 1.127248 1.726203 2.853433 0
 1.287513 1.779542 3.067036 0
 1.172185 1.879920 3.052086 0
 8.273797 1.127248 9.401026 0
 8.220457 1.287513 9.507954 0
 8.120080 1.172185 9.292245 0
 8.872752 8.273797 17.146536 0
 8.712487 8.220457 16.932938 0
 8.827452 8.119555 16.946983 0
 4.845317 3.097768 7.942997 0
 2.232544 9.342650 11.575220 0
 2.231482 9.477139 11.708639 0
 2.118436 9.423791 11.542242 0
 2.578471 3.951762 6.530200 0
 2.670653 4.094378 6.765004 0
 1.512895 5.982413 7.495343 0
 1.443898 6.091654 7.535585 0
 1.365815 5.952167 7.318014 0
 1.321293 6.079159 7.400486 0
 8.583735 5.031181 13.614880 0
 5.007074 3.044911 8.051896 0
 3.906242 5.805687 9.711927 0
 1.845991 4.317462 6.163452 0
 1.710832 4.271868 5.982693 0
 1.848897 4.146701 5.995589 0
 4.835890 8.349513 13.185406 0
 5.996070 7.736128 13.732152 0
 5.958368 7.915096 13.873426 0
 5.865686 7.811341 13.676991 0
 6.023907 9.579772 15.603666 0
 5.876548 9.535896 15.412432 0
 6.006768 9.473273 15.480023 0
 7.223019 5.959930 13.182880 0
 7.327240 5.856607 13.183775 0
 7.330631 6.014463 13.345027 0
 0.698432 5.772837 6.471278 0
 0.575890 5.792314 6.368213 0
 0.596135 5.650707 6.246850 0
 3.526508 0.747543 4.274030 0
 9.252457 3.526508 12.778935 0
 4.596781 5.505511 10.102260 0
 4.767055 5.487215 10.254226 0
 4.696230 5.614021 10.310211 0
 1.512000 3.028704 4.540679 0
 1.638329 2.981352 4.619654 0
 1.652687 3.096948 4.749606 0
 0.559112 6.615945 7.175070 0
 0.663739 6.708256 7.372017 0
 0.514937 6.747599 7.262553 0
 2.646301 0.922937 3.569211 0
 2.670109 0.789847 3.459934 0
 2.774578 0.915790 3.690341 0
 9.077063 2.646301 11.723348 0
 9.210153 2.670109 11.880256 0
 9.084210 2.774578 11.858774 0
 3.850071 9.739372 13.589449 0
 1.198950 0.801339 2.000278 0
 1.130480 0.928674 2.059144 0
 1.047596 0.816552 1.864139 0
 9.198662 1.198950 10.397613 0
 9.071326 1.130480 10.201805 0
 9.183449 1.047596 10.231045 0
 8.801050 9.198662 17.999723 0
 8.869520 9.071326 17.940842 0
 8.952404 9.183449 18.135876 0
 2.107061 8.657786 10.764894 0
 2.156330 8.559928 10.716308 0
 8.229831 7.968397 16.198195 0
 8.261547 7.818151 16.079651 0
 8.329817 7.931155 16.260937 0
 5.033668 8.974723 14.008373 0
 4.887443 9.018431 13.905863 0
 4.550435 6.184982 10.735393 0
 5.782885 4.915845 10.698648 0
 5.654538 5.009116 10.663573 0
 5.613523 4.876764 10.490214 0
 5.510816 4.964171 10.474915 0
 7.580945 7.964810 15.545712 0
 7.718913 8.041488 15.760360 0
 7.572391 8.086435 15.658784 0
 0.302012 7.781382 8.083409 0
 0.448479 7.727332 8.175831 0
 0.365202 7.918355 8.283568 0
 0.518228 7.867599 8.385839 0
 5.160952 8.874516 14.035455 0
 2.809502 0.795452 3.604931 0
 9.204548 2.809502 12.014030 0
 6.783435 9.018176 15.801588 0
 6.778850 9.177019 15.955852 0
 1.042573 3.357720 4.400285 0
 1.152876 3.345575 4.498446 0
 5.292080 1.380322 6.672339 0
 5.350010 1.474343 6.824289 0
 5.214271 1.518538 6.732738 0
 8.627259 5.314714 13.941927 0
 8.528218 5.353157 13.881322 0
 8.491294 5.224998 13.716248 0
 1.372741 5.314714 6.687474 0
 1.516472 5.222009 6.738501 0
 1.473827 5.352179 6.826027 0
 2.287620 1.524415 3.811993 0
 2.254541 1.369898 3.624404 0
 2.361500 1.418024 3.779484 0
 8.475585 2.287620 10.763183 0
 8.630102 2.254541 10.884624 0
 8.581976 2.361500 10.943454 0
 7.438138 0.557798 7.995919 0
 7.316076 0.631051 7.947106 0
 7.295281 0.481153 7.776422 0
 8.660706 9.433530 18.094234 0
 8.734312 9.573100 18.307428 0
 8.588496 9.554889 18.143387 0
 1.823967 3.799310 5.623257 0
 1.844278 3.966350 5.810613 0
 1.713768 3.849500 5.563252 0
 1.678203 3.965249 5.643442 0
 7.331566 6.341513 13.673014 0
 7.210431 6.242014 13.452383 0
 7.370585 6.231817 13.602339 0
 5.056756 4.851300 9.907988 0
 5.088861 4.732314 9.821105 0
 2.571431 3.205691 5.777065 0
 2.535318 3.365102 5.900372 0
 2.434222 3.215888 5.650059 0
 2.399718 3.322978 5.722651 0
 5.222429 5.423650 10.646022 0
 5.284202 5.287165 10.571306 0
 5.358247 5.399813 10.757993 0
 1.860394 2.484539 4.344899 0
 7.523554 1.866925 9.390446 0
 7.731541 1.104297 8.835814 0
 7.749978 1.235802 8.985747 0
 7.601613 1.214993 8.816575 0
 4.243496 4.933706 9.177160 0
 4.234445 4.810615 9.045014 0
 4.356071 4.907642 9.263658 0
 8.139606 7.515463 15.655018 0
 0.869467 5.131529 6.001002 0
 0.769390 5.051095 5.820493 0
 0.900624 4.981236 5.881868 0
 5.117629 9.121278 14.238892 0
 5.054770 9.226753 14.281514 0
 4.976250 9.108380 14.084622 0
 9.130545 5.131914 14.262422 0
 9.106349 4.979466 14.085786 0
 9.232071 5.051641 14.283676 0
 5.131914 0.869455 6.001329 0
 4.979466 0.893651 5.873075 0
 5.051641 0.767929 5.819533 0
 1.205574 3.476413 4.681980 0
 5.167317 1.389628 6.556882 0
 2.615458 6.362182 8.977684 0
 2.774981 6.409706 9.184733 0
 2.621361 6.497158 9.118567 0
 6.362182 7.384542 13.746666 0
 6.409706 7.225019 13.634669 0
 6.497157 7.378639 13.875740 0
 4.682370 6.145089 10.827435 0
 4.738197 6.044947 10.783116 0
 4.770121 6.206210 10.976295 0
 8.517939 6.968341 15.486236 0
 8.467883 6.821981 15.289817 0
 8.634856 6.903939 15.538751 0
 1.786778 7.275660 9.062487 0
 1.840102 7.137749 8.977901 0
 1.913435 7.227174 9.140660 0
 7.275660 8.213222 15.488850 0
 7.137843 8.159833 15.297640 0
 7.227174 8.086565 15.313706 0
 6.686429 8.234365 14.920755 0
 6.638235 8.363351 15.001560 0
 6.535256 8.299313 14.834530 0
 3.458855 4.122495 7.581299 0
 3.606796 4.177765 7.784511 0
 3.483129 4.255417 7.738501 0
 3.598774 4.337320 7.936048 0
 0.790780 1.521364 2.312132 0
 0.866223 1.686136 2.552347 0
 0.720848 1.668843 2.389681 0
 8.478637 0.790780 9.269414 0
 8.313864 0.866223 9.180074 0
 8.331158 0.720848 9.051996 0
 9.209220 8.478637 17.687849 0
 9.133777 8.313864 17.447626 0
 9.279152 8.331158 17.610308 0
 2.169859 1.495364 3.665186 0
 8.504636 2.169859 10.674477 0
 3.989424 5.286408 9.275807 0
 4.150170 5.339636 9.489778 0
 4.049580 5.430021 9.479589 0
 4.102524 5.218718 9.321218 0
 5.507239 3.685842 9.193003 0
 5.535018 3.555948 9.090882 0
 5.619704 3.700251 9.319873 0
 6.993425 6.836701 13.830071 0
 7.114738 6.939888 14.054570 0
 6.971315 7.008838 13.980098 0
 9.087513 3.339667 12.427154 0
 9.026529 3.270177 12.296679 0
 9.144161 3.207373 12.351509 0
 3.339667 0.912487 4.252125 0
 3.270177 0.973470 4.243613 0
 3.207373 0.855838 4.063182 0
 2.810024 0.456545 3.266557 0
 2.953604 0.456908 3.410501 0
 2.865226 0.576531 3.441742 0
 9.543455 2.810024 12.353467 0
 9.543092 2.953604 12.496682 0
 9.423470 2.865226 12.288684 0
 1.046198 4.122622 5.168816 0
 1.052132 4.303879 5.356014 0
 0.954772 4.204939 5.159711 0
 5.682586 3.599695 9.282195 0
 2.902658 1.497932 4.400541 0
 2.858719 1.367423 4.226099 0
 3.032295 1.365025 4.397272 0
 0.441684 9.357429 9.799125 0
 0.279594 9.434204 9.713799 0
 0.296961 9.314909 9.611882 0
 4.595613 8.187726 12.783354 0
 4.511151 8.049745 12.560910 0
 4.657690 8.056572 12.714271 0
 2.344383 2.780520 5.124858 0
 2.410020 2.636260 5.046232 0
 2.463959 2.742223 5.206130 0
 7.219480 2.344383 9.563820 0
 7.363740 2.410020 9.773714 0
 7.257778 2.463959 9.721690 0
 6.184692 2.536127 8.720744 0
 6.296477 6.291746 12.588153 0
 6.178900 6.299035 12.477859 0
 6.199009 6.150740 12.349682 0
 5.707364 1.638875 7.346176 0
 5.555358 1.705302 7.260589 0
 5.626503 1.565697 7.192135 0
 3.623137 6.846333 10.469511 0
 2.848079 5.061532 7.909618 0
 2.716476 5.031258 7.747739 0
 2.764699 4.932348 7.697049 0
 6.567698 8.175380 14.743037 0
 4.499614 3.585040 8.084571 0
 4.366788 3.584994 7.951702 0
 4.446567 3.471965 7.918450 0
 6.505392 2.912363 9.417684 0
 6.463891 3.083112 9.546926 0
 6.394594 2.906682 9.301205 0
 6.322877 2.991369 9.314167 0
 2.988788 8.221578 11.210410 0
 2.848468 8.223381 11.071896 0
 2.938308 8.067600 11.005956 0
 2.741634 3.009562 5.751136 0
 2.625647 3.073562 5.699152 0
 2.667062 2.893990 5.560995 0
 6.406180 9.252308 15.658476 0
 3.445907 2.659313 6.105136 0
 3.518409 2.790100 6.308425 0
 3.368222 2.742452 6.110594 0
 7.340687 3.445907 10.786545 0
 7.209900 3.518409 10.728254 0
 7.257548 3.368222 10.625712 0
 3.029496 1.489282 4.518724 0
 3.081775 8.353309 11.435127 0
 2.937531 8.385432 11.323006 0
 1.616217 1.525900 3.142092 0
 1.625544 1.659426 3.284943 0
 8.474099 1.616217 10.090296 0
 8.340574 1.625544 9.966095 0
 8.383783 8.474099 16.857851 0
 8.366885 8.338261 16.705132 0
 2.260671 2.687577 4.948201 0
 7.312423 2.260671 9.573050 0
 2.634778 9.100739 11.735548 0
 2.751874 9.095387 11.847297 0
 2.661494 9.223904 11.885420 0
 2.881194 4.935314 7.816510 0
 3.611111 10.000000 13.611111 0
 3.472222 10.000000 13.472222 0
 3.516792 9.854188 13.370987 0
 0.000000 3.611111 3.611111 0
 0.000000 3.472222 3.472222 0
 0.145812 3.516792 3.662605 0
 3.472222 0.000000 3.472222 0
 3.611111 0.000000 3.611111 0
 3.516792 0.145812 3.662600 0
 10.000000 3.472222 13.472222 0
 10.000000 3.611111 13.611111 0
 9.854188 3.516792 13.370973 0
 2.809457 9.542949 12.352419 0
 2.863925 9.418609 12.282551 0
 2.953662 9.542715 12.496389 0
 2.088911 6.516935 8.605897 0
 2.178055 6.622899 8.801003 0
 2.038125 6.684228 8.722403 0
 6.515550 7.910473 14.425976 0
 6.624644 7.818213 14.442805 0
 6.686428 7.967595 14.653976 0
 2.807078 9.202169 12.009276 0
 1.157460 4.226938 5.384399 0
 4.334121 3.451462 7.785497 0
 4.390341 4.809024 9.199311 0
 2.461796 4.161706 6.623480 0
 2.524874 4.329898 6.854753 0
 2.368239 4.274683 6.642909 0
 8.402851 7.835985 16.238804 0
 4.844717 6.127686 10.972370 0
 0.376853 9.485054 9.861915 0
 6.953347 1.488441 8.441747 0
 6.831847 1.586057 8.417860 0
 6.827979 1.453654 8.281591 0
 8.328498 8.202458 16.530928 0
 3.894337 4.620393 8.514691 0
 7.486001 0.809553 8.295530 0
 0.858725 8.722531 9.581289 0
 1.021079 8.803075 9.824189 0
 0.926489 8.895859 9.822376 0
 1.353558 7.981986 9.335587 0
 5.103247 4.421588 9.524764 0
 6.963366 1.048810 8.012148 0
 6.884698 0.923605 7.808277 0
 7.042629 0.903632 7.946233 0
 2.802897 4.053679 6.856543 0
 0.722314 9.520363 10.242688 0
 5.087639 5.919766 11.007357 0
 5.172787 6.042550 11.215291 0
 5.027209 6.035408 11.062579 0
 2.972581 3.152143 6.124657 0
 3.051320 3.237915 6.289167 0
 2.891829 3.294670 6.186433 0
 3.481136 6.425205 9.906369 0
 3.351527 6.339208 9.690765 0
 3.475854 6.270106 9.745984 0
 4.543251 6.941085 11.484327 0
 4.651010 6.849020 11.500021 0
 4.676975 7.006541 11.683507 0
 1.626288 2.311020 3.937280 0
 7.691458 1.625557 9.316979 0
 8.373713 7.688981 16.062662 0
 6.577372 6.121279 12.698579 0
 6.721230 6.140491 12.861648 0
 6.586689 6.236336 12.822950 0
 6.462371 6.286243 12.748544 0
 6.550437 6.430156 12.980526 0
 6.375656 6.392724 12.768305 0
 9.218946 7.016593 16.235504 0
 9.114326 7.037601 16.151876 0
 9.116414 6.888556 16.004930 0
 1.334896 0.555154 1.890041 0
 1.426591 0.410512 1.837097 0
 1.466554 0.565998 2.032542 0
 9.444846 1.334896 10.779742 0
 9.589488 1.426591 11.016076 0
 9.434002 1.466554 10.900552 0
 8.532495 9.432484 17.964991 0
 3.641623 9.892745 13.534372 0
 0.107255 3.641623 3.748877 0
 3.641623 0.107255 3.748875 0
 9.892745 3.641623 13.534370 0
 2.107111 6.010770 8.117917 0
 2.195521 6.087101 8.282664 0
 2.088281 6.169971 8.258296 0
 3.711240 7.702978 11.414255 0
 3.753700 7.593210 11.346947 0
 3.852340 7.744352 11.596725 0
 7.587032 1.102500 8.689497 0
 2.913982 3.504823 6.418745 0
 3.083112 3.536109 6.619161 0
 2.906021 3.610849 6.516818 0
 2.991431 3.677116 6.668494 0
 6.956197 1.599887 8.556040 0
 6.913921 1.734840 8.648715 0
 4.264837 0.506349 4.771166 0
 4.212965 0.369220 4.582166 0
 4.362883 0.430394 4.793260 0
 9.493650 4.264837 13.758463 0
 9.630780 4.212965 13.843732 0
 9.569606 4.362883 13.932467 0
 4.346334 0.298179 4.644503 0
 9.701820 4.346334 14.048141 0
 3.083775 2.826700 5.910401 0
 7.173300 3.083775 10.257019 0
 7.144457 7.206719 14.351121 0
 7.307000 7.237937 14.544876 0
 7.226987 7.311540 14.538478 0
 2.770490 3.248269 6.018697 0
 2.759542 3.399570 6.159055 0
 8.599419 6.770926 15.370296 0
 1.919936 1.270345 3.190254 0
 1.755492 1.254920 3.010387 0
 1.871586 1.127154 2.998718 0
 1.739587 1.082100 2.821668 0
 8.917900 1.739587 10.657472 0
 8.872846 1.871586 10.744425 0
 8.745080 1.755492 10.500556 0
 8.729655 1.919936 10.649577 0
 8.080065 8.729655 16.809696 0
 8.244508 8.745080 16.989578 0
 8.128414 8.872846 17.001242 0
 8.260413 8.917900 17.178303 0
 5.219138 6.610251 11.829351 0
 5.205322 6.783471 11.988752 0
 5.094726 6.711517 11.806213 0
 7.708025 5.982225 13.690188 0
 7.537745 5.993568 13.531250 0
 7.569298 5.891051 13.460284 0
 4.741090 4.800401 9.541432 0
 4.777213 4.665328 9.442470 0
 4.865252 4.762175 9.627362 0
 2.271795 0.209714 2.481505 0
 3.663119 3.911580 7.574631 0
 3.826711 3.869400 7.696042 0
 3.770090 3.992099 7.762126 0
 0.215148 2.456833 2.671979 0
 2.456092 9.784729 12.240830 0
 9.789246 2.448795 12.238035 0
 7.695690 7.911520 15.607167 0
 4.639359 4.733263 9.372563 0
 5.838173 7.692947 13.531083 0
 4.131754 0.207418 4.339162 0
 9.792582 4.131754 13.924329 0
 5.644777 1.756792 7.401502 0
 0.737325 5.669270 6.406606 0
 1.527778 0.000000 1.527778 0
 1.666667 0.000000 1.666667 0
 1.589848 0.164068 1.753912 0
 10.000000 1.527778 11.527778 0
 10.000000 1.666667 11.666667 0
 9.835932 1.589848 11.425780 0
 0.000000 1.666667 1.666667 0
 0.000000 1.527778 1.527778 0
 0.166367 1.576067 1.742431 0
 1.666667 10.000000 11.666667 0
 1.527778 10.000000 11.527778 0
 1.576167 9.835144 11.411314 0
 8.472222 10.000000 18.472221 0
 8.333333 10.000000 18.333332 0
 8.410002 9.835957 18.245968 0
 0.000000 8.472222 8.472222 0
 0.000000 8.333333 8.333333 0
 0.166292 8.423943 8.590234 0
 8.333333 0.000000 8.333333 0
 8.472222 0.000000 8.472222 0
 8.423933 0.166367 8.590300 0
 10.000000 8.333333 18.333332 0
 10.000000 8.472222 18.472221 0
 9.833633 8.423933 18.257574 0
 3.880420 7.593835 11.474287 0
 0.929934 2.639890 3.569814 0
 0.910989 2.774923 3.685901 0
 0.801785 2.672930 3.474705 0
 3.350452 0.817033 4.167456 0
 9.182967 3.350452 12.533396 0
 0.206973 7.973966 8.180943 0
 0.290860 8.070413 8.361294 0
 6.646036 8.522911 15.168915 0
 6.661362 8.674201 15.335533 0
 6.551526 8.651682 15.203176 0
 6.008340 2.139752 8.148020 0
 6.117687 2.149634 8.267255 0
 6.089433 2.274208 8.363573 0
 1.774427 3.040984 4.815380 0
 1.793190 3.163004 4.956165 0
 2.529397 2.962426 5.491768 0
 2.601451 8.230957 10.832459 0
 2.705326 8.289047 10.994422 0
 2.563487 8.380516 10.944048 0
 0.794699 2.807750 3.602439 0
 6.361014 1.300424 7.661391 0
 6.245265 1.175609 7.420834 0
 6.418029 1.163651 7.581644 0
 6.311475 1.063067 7.374508 0
 8.554075 6.198953 14.752981 0
 8.398484 6.284443 14.682882 0
 8.440294 6.124748 14.564996 0
 5.981593 2.283386 8.264903 0
 0.959141 3.272808 4.231944 0
 1.114740 3.190928 4.305658 0
 9.421269 2.339659 11.760916 0
 2.339659 0.578731 2.918374 0
 5.380229 0.370990 5.751200 0
 5.504284 0.305714 5.809986 0
 8.397983 5.325667 13.723604 0
 3.368343 3.309905 6.678176 0
 3.518182 3.389859 6.907962 0
 3.370279 3.428877 6.799085 0
 6.690095 3.368343 10.058378 0
 6.610770 3.517084 10.127791 0
 6.571198 3.370148 9.941278 0
 6.375421 0.217663 6.593077 0
 6.491006 0.285487 6.776484 0
 6.309723 0.352951 6.662652 0
 9.782336 6.375421 16.157738 0
 9.714513 6.491006 16.205498 0
 9.647049 6.309723 15.956755 0
 4.992723 9.561673 14.554397 0
 4.955625 9.444233 14.399850 0
 5.100862 9.495233 14.596086 0
 5.104562 9.353175 14.457734 0
 3.099504 7.861408 10.960958 0
 3.087139 7.754130 10.841326 0
 3.246407 7.816896 11.063354 0
 7.265111 7.137614 14.402662 0
 3.406950 5.209372 8.616319 0
 3.306184 5.104462 8.410643 0
 3.421729 5.051481 8.473199 0
 8.889911 6.068428 14.958299 0
 8.876207 5.943291 14.819448 0
 9.011252 6.006241 15.017453 0
 3.455959 8.054653 11.510655 0
 3.603015 8.014289 11.617345 0
 3.522590 8.166489 11.689120 0
 4.436863 1.321819 5.758627 0
 8.678182 4.436863 13.115009 0
 1.946766 2.013768 3.960495 0
 1.849528 1.959829 3.809323 0
 1.990244 1.885894 3.876096 0
 7.986232 1.946766 9.932965 0
 8.040218 1.849507 9.889699 0
 8.114106 1.990244 10.104321 0
 9.449766 6.670732 16.120462 0
 9.491693 6.805404 16.297077 0
 9.328373 6.770059 16.098413 0
 2.005201 5.571858 7.577087 0
 5.571858 7.994799 13.566633 0
 5.702821 7.933967 13.636757 0
 5.684880 8.078018 13.762867 0
 1.972178 4.097893 6.070059 0
 5.343924 2.289512 7.633354 0
 5.340167 2.452921 7.793002 0
 5.228862 2.401259 7.630036 0
 4.634031 5.393753 10.027744 0
 3.451608 3.228068 6.679599 0
 6.771995 3.451471 10.223398 0
 8.370704 5.826476 14.197134 0
 8.212707 5.784408 13.997068 0
 8.353352 5.703722 14.057029 0
 2.826501 8.085840 10.912391 0
 3.357792 9.078940 12.436755 0
 3.207491 9.144413 12.351926 0