TITLE      =  "2D FE Unstructured grid data" 
VARIABLES = "X", "Y", "U", "Dom" 
ZONE T="P1", F=FEPOINT, N= 355 E= 638  ET=TRIANGLE 
 5.530718 0.481856 6.012558 19
 5.695170 0.474101 6.169250 19
 5.646289 0.628994 6.275266 19
 7.959190 1.754323 9.713499 19
 7.802344 1.756332 9.558659 19
 7.856203 1.616465 9.472644 19
 7.552849 0.916855 8.469688 19
 7.494326 1.025363 8.519661 19
 7.374181 0.926226 8.300386 19
 8.273797 1.127248 9.401036 19
 8.220457 1.287513 9.507970 19
 8.120080 1.172185 9.292257 19
 7.438138 0.557798 7.995922 19
 7.316076 0.631051 7.947109 19
 7.295281 0.481153 7.776424 19
 7.731541 1.104297 8.835814 19
 7.749978 1.235802 8.985761 19
 7.601613 1.214993 8.816585 19
 8.478637 0.790780 9.269418 19
 8.313864 0.866223 9.180077 19
 8.331158 0.720848 9.052008 19
 6.953347 1.488441 8.441761 19
 6.831847 1.586057 8.417871 19
 6.827979 1.453654 8.281606 19
 7.486001 0.809553 8.295540 19
 6.963366 1.048810 8.012158 19
 6.884698 0.923605 7.808281 19
 7.042629 0.903632 7.946240 19
 7.691458 1.625557 9.316986 19
 7.587032 1.102500 8.689511 19
 8.333333 0.000000 8.333333 19
 8.472222 0.000000 8.472222 19
 8.423933 0.166367 8.590299 19
 6.361014 1.300424 7.661410 19
 6.245265 1.175609 7.420846 19
 6.418029 1.163651 7.581656 19
 6.311475 1.063067 7.374518 19
 5.380229 0.370990 5.751206 19
 5.504284 0.305714 5.809987 19
 6.375421 0.217663 6.593076 19
 6.491006 0.285487 6.776485 19
 6.309723 0.352951 6.662663 19
 8.175214 0.985853 9.161058 19
 8.030745 1.035779 9.066508 19
 6.456118 0.426628 6.882735 19
 8.194445 0.000000 8.194445 19
 8.260237 0.127251 8.387487 19
 8.090914 0.133506 8.224418 19
 6.668028 0.549795 7.217811 19
 6.552711 0.526996 7.079693 19
 6.668671 0.402044 7.070707 19
 7.491823 1.669027 9.160828 19
 7.420715 1.784334 9.205020 19
 7.342836 1.639057 8.981870 19
 6.805555 0.000000 6.805555 19
 6.780949 0.168758 6.949704 19
 6.669086 0.122512 6.791594 19
 7.441488 1.573872 9.015337 19
 6.232086 0.489105 6.721176 19
 6.130297 0.402729 6.533014 19
 6.175150 0.288281 6.463419 19
 6.919063 1.345560 8.264593 19
 7.084176 1.397750 8.481905 19
 7.033436 1.283168 8.316581 19
 5.614038 0.973464 6.587473 19
 5.434222 0.993871 6.428064 19
 5.499931 0.878386 6.378289 19
 7.471699 0.439762 7.911456 19
 7.393651 0.354021 7.747664 19
 8.387761 0.339635 8.727401 19
 8.240078 0.418746 8.658822 19
 8.276791 0.268489 8.545280 19
 8.461967 0.900401 9.362370 19
 7.660341 0.578731 8.239058 19
 7.567696 0.509109 8.076795 19
 7.710315 0.439928 8.150242 19
 7.136683 0.529082 7.665755 19
 7.205846 0.625018 7.830847 19
 6.230560 1.344904 7.575436 19
 6.201416 1.471436 7.672822 19
 6.086552 1.410100 7.496623 19
 7.639262 1.456599 9.095840 19
 7.763267 1.366998 9.130237 19
 7.753578 1.515011 9.268571 19
 7.003982 0.388354 7.392326 19
 7.133464 0.392585 7.526041 19
 7.012825 0.504763 7.517572 19
 7.949999 0.693922 8.643912 19
 8.057818 0.785259 8.843068 19
 7.934078 0.862031 8.796096 19
 6.555438 0.366973 6.922396 19
 6.130081 1.262278 7.392330 19
 7.588399 0.399238 7.987628 19
 5.523998 1.106661 6.630629 19
 5.616538 0.374448 5.990971 19
 8.101618 0.647294 8.748906 19
 6.929450 0.775722 7.705155 19
 6.801984 0.823573 7.625536 19
 6.788272 0.705521 7.493778 19
 8.024765 1.279948 9.304699 19
 7.894146 1.289960 9.184080 19
 7.976189 1.160414 9.136584 19
 8.103052 1.556893 9.659934 19
 8.175099 1.426256 9.601347 19
 8.266163 1.530432 9.796585 19
 7.171700 0.247466 7.419162 19
 7.302215 0.190436 7.492648 19
 7.275958 0.316941 7.592893 19
 7.809556 0.964260 8.773802 19
 7.810327 0.850372 8.660689 19
 8.014078 0.559529 8.573600 19
 7.204134 0.124253 7.328382 19
 5.574383 0.760526 6.334885 19
 5.472854 0.651649 6.124478 19
 7.660153 1.319150 8.979278 19
 8.018033 1.414853 9.432865 19
 7.638889 0.000000 7.638889 19
 7.777778 0.000000 7.777778 19
 7.724136 0.155138 7.879274 19
 7.670127 1.770020 9.440132 19
 7.569445 0.094249 7.663692 19
 6.422426 1.621216 8.043612 19
 6.284449 1.579454 7.863872 19
 6.390977 1.521575 7.912521 19
 6.676661 1.313509 7.990144 19
 6.777507 1.361396 8.138878 19
 6.676695 1.483973 8.160645 19
 6.012587 0.979377 6.991941 19
 5.989002 1.095738 7.084710 19
 5.884440 1.047806 6.932217 19
 5.899824 0.937686 6.837485 19
 7.949980 0.968231 8.918197 19
 6.086993 0.833166 6.920138 19
 6.152033 0.968888 7.120898 19
 5.613404 0.247793 5.861188 19
 5.775684 0.178337 5.954015 19
 5.738230 0.320551 6.058769 19
 5.846208 1.398244 7.244419 19
 5.911312 1.262849 7.174131 19
 5.969497 1.377423 7.346887 19
 8.248993 0.587877 8.836858 19
 8.138595 0.527782 8.666374 19
 6.580320 1.413871 7.994164 19
 5.815335 0.449445 6.264758 19
 8.168266 0.324664 8.492924 19
 8.117494 1.321646 9.439126 19
 6.956197 1.599887 8.556051 19
 8.206525 0.729662 8.936181 19
 7.846552 0.756488 8.603025 19
 6.666667 0.000000 6.666667 19
 7.850990 1.168013 9.018986 19
 5.656200 0.116656 5.772852 19
 7.044038 0.280671 7.324705 19
 8.215405 1.627476 9.842875 19
 7.336075 1.231452 8.567503 19
 7.169745 1.239987 8.409710 19
 7.261079 1.146039 8.407096 19
 5.791094 1.253505 7.044570 19
 7.457663 0.674062 8.131716 19
 7.462380 1.464749 8.927102 19
 7.388029 1.351707 8.739710 19
 7.538618 1.349015 8.887600 19
 7.462672 1.262592 8.725243 19
 6.759270 1.021705 7.780956 19
 6.719118 1.165979 7.885075 19
 6.623026 1.060949 7.683953 19
 8.182172 0.226299 8.408473 19
 7.102610 1.031868 8.134455 19
 5.639409 1.351996 6.991373 19
 5.700864 1.196129 6.896963 19
 5.751071 1.354306 7.105347 19
 7.856003 1.453294 9.309283 19
 5.776108 0.965661 6.741741 19
 5.746908 1.073127 6.820007 19
 6.021003 1.303025 7.323996 19
 6.669121 0.801367 7.470469 19
 6.635121 0.669872 7.304977 19
 7.372607 1.087612 8.460203 19
 7.897685 1.866148 9.763810 19
 7.065910 1.528489 8.594366 19
 8.124784 1.717798 9.842573 19
 8.040218 1.849507 9.889731 19
 7.239058 1.351035 8.590067 19
 8.071854 0.420917 8.492771 19
 6.783769 0.483042 7.266801 19
 6.804168 0.361318 7.165477 19
 7.994965 1.638687 9.633634 19
 8.167719 0.849068 9.016784 19
 7.965651 1.536039 9.501672 19
 8.375373 0.580966 8.956345 19
 6.324122 0.610765 6.934872 19
 6.351065 0.492053 6.843104 19
 5.964937 0.861226 6.826140 19
 5.967681 0.740476 6.708137 19
 6.096727 0.612747 6.709456 19
 6.209965 0.725599 6.935547 19
 6.069672 0.717208 6.786859 19
 5.416667 0.000000 5.416667 19
 5.555555 0.000000 5.555555 19
 5.504745 0.142925 5.647664 19
 6.319388 0.847432 7.166799 19
 6.376384 0.726212 7.102576 19
 7.893880 1.056013 8.949875 19
 7.258426 1.044417 8.302821 19
 7.190665 0.931192 8.121840 19
 5.776990 0.694899 6.471866 19
 5.785912 0.573163 6.359056 19
 6.204954 0.596510 6.801449 19
 6.905020 0.667579 7.572584 19
 6.109220 1.114250 7.223444 19
 6.017458 1.194945 7.212376 19
 7.361111 0.000000 7.361111 19
 7.430360 0.115371 7.545726 19
 7.298603 0.081500 7.380099 19
 5.736123 0.856853 6.592951 19
 7.574777 0.208464 7.783236 19
 7.413603 0.246067 7.659665 19
 7.517454 0.318836 7.836287 19
 8.347806 0.472575 8.820378 19
 5.857598 0.815424 6.672999 19
 6.111111 0.000000 6.111111 19
 6.250000 0.000000 6.250000 19
 6.180937 0.137478 6.318412 19
 5.636862 1.106228 6.743063 19
 5.982413 1.512895 7.495275 19
 5.834264 1.546674 7.380903 19
 6.474845 0.818576 7.293401 19
 6.385768 0.954320 7.340068 19
 6.515819 0.965129 7.480925 19
 6.462369 1.397370 7.859711 19
 6.324215 1.436751 7.760937 19
 7.167843 0.736264 7.904096 19
 7.038102 0.646844 7.684930 19
 6.846932 1.120401 7.967311 19
 7.376606 0.756333 8.132928 19
 7.500000 0.000000 7.500000 19
 7.221816 1.512943 8.734728 19
 5.678832 0.759675 6.438484 19
 7.554602 1.571620 9.126198 19
 5.847640 0.347198 6.194822 19
 7.753994 1.900319 9.654287 19
 5.589827 1.204062 6.793860 19
 6.814268 1.252717 8.066960 19
 6.944895 1.193835 8.138705 19
 6.571663 1.316208 7.887843 19
 6.483446 1.273219 7.756640 19
 8.469637 0.651486 9.121125 19
 6.883154 0.113225 6.996378 19
 5.622250 0.846234 6.468457 19
 7.475721 1.154086 8.629786 19
 5.878862 0.239091 6.117944 19
 5.876892 0.663522 6.540397 19
 5.972222 0.000000 5.972222 19
 6.067082 0.109985 6.177065 19
 5.898426 0.116071 6.014488 19
 7.083333 0.000000 7.083333 19
 7.079720 0.141202 7.220917 19
 7.168542 1.126727 8.295239 19
 7.657166 0.302552 7.959712 19
 7.781382 0.302012 8.083395 19
 7.222222 0.000000 7.222222 19
 7.067441 0.778951 7.846374 19
 5.401428 0.214096 5.615516 19
 8.055555 0.000000 8.055555 19
 5.389453 0.105653 5.495101 19
 8.295401 1.002043 9.297432 19
 6.119349 1.567009 7.686327 19
 7.874085 0.115023 7.989112 19
 5.708072 1.483647 7.191686 19
 6.502028 0.681337 7.183352 19
 7.265856 0.824856 8.090693 19
 6.866995 1.028238 7.895212 19
 7.617286 0.798666 8.415939 19
 5.468232 0.781475 6.249684 19
 7.925094 0.350582 8.275672 19
 8.070436 0.288870 8.359303 19
 7.973966 0.206973 8.180937 19
 5.694445 0.000000 5.694445 19
 7.855732 0.225946 8.081675 19
 5.994103 0.213297 6.207389 19
 7.311299 1.434176 8.745448 19
 7.355800 1.524904 8.880674 19
 7.753076 0.535534 8.288596 19
 6.433274 0.580817 7.014081 19
 6.743394 0.907869 7.651242 19
 6.604926 0.235275 6.840195 19
 6.723753 0.280204 7.003951 19
 5.921306 1.142314 7.063588 19
 6.899308 0.555920 7.455215 19
 6.767800 0.593947 7.361732 19
 6.590637 1.189853 7.780465 19
 6.507941 1.506101 8.014014 19
 6.264836 0.224408 6.489235 19
 7.559259 0.720355 8.279599 19
 5.359257 0.759984 6.119215 19
 7.646367 0.999774 8.646123 19
 6.209862 1.066738 7.276579 19
 7.916667 0.000000 7.916667 19
 7.632497 1.874329 9.506799 19
 7.542164 1.765435 9.307580 19
 7.063766 1.154066 8.217810 19
 6.201790 0.855314 7.057085 19
 6.303110 0.114363 6.417469 19
 6.498920 0.145414 6.644330 19
 6.527778 0.000000 6.527778 19
 6.405153 0.101550 6.506699 19
 6.955204 0.201777 7.156976 19
 6.845220 0.241074 7.086286 19
 8.395570 0.967330 9.362894 19
 7.595392 1.680493 9.275864 19
 6.569833 0.765405 7.335221 19
 8.052592 0.914370 8.966951 19
 6.388889 0.000000 6.388889 19
 6.096117 0.210944 6.307052 19
 6.511671 1.081840 7.593490 19
 6.575046 0.857318 7.432343 19
 8.288482 1.412666 9.701138 19
 6.417073 1.053950 7.471000 19
 5.277778 0.000000 5.277778 19
 7.146887 0.834979 7.981847 19
 5.285372 0.138369 5.423733 19
 7.281088 0.725714 8.006785 19
 6.578643 0.084081 6.662721 19
 5.833333 0.000000 5.833333 19
 8.284565 1.715435 9.999998 19
 7.740407 0.769692 8.510086 19
 7.662305 0.690173 8.352464 19
 7.794248 0.634852 8.429087 19
 6.645611 0.936113 7.581703 19
 7.702896 0.885367 8.588246 19
 7.954675 0.465097 8.419764 19
 7.830323 0.394099 8.224412 19
 6.944445 0.000000 6.944445 19
 8.473415 0.416624 8.890047 19
 7.849445 0.496616 8.346054 19
 7.904535 0.585217 8.489746 19
 6.987447 0.093535 7.080978 19
 5.389285 0.867283 6.256544 19
 6.263386 0.959293 7.222655 19
 8.467130 0.526815 8.993936 19
 5.763889 0.075243 5.839127 19
 7.983811 0.092829 8.076641 19
 6.901521 0.436730 7.338241 19
 5.986506 0.632032 6.618519 19
 5.825987 1.162622 6.988579 19
 7.557285 0.622383 8.179655 19
 6.116432 0.504141 6.620557 19
 6.924089 0.321164 7.245245 19
 5.955906 0.325406 6.281300 19
 5.925706 0.435554 6.361245 19
 5.899045 0.541603 6.440629 19
 6.025506 0.407118 6.432610 19
 6.009024 0.516635 6.525646 19
 6.063309 0.305677 6.368975 19
 8.340574 1.625544 9.966111 19
 1 2 3 
 4 5 6 
 7 8 9 
 10 11 12 
 13 14 15 
 16 17 18 
 19 20 21 
 22 23 24 
 7 9 25 
 26 27 28 
 29 6 5 
 30 16 18 
 31 32 33 
 34 35 36 
 37 36 35 
 1 38 39 
 40 41 42 
 10 12 43 
 44 43 12 
 45 42 41 
 46 47 48 
 49 50 51 
 52 53 54 
 55 56 57 
 58 52 54 
 59 60 42 
 42 60 61 
 22 62 63 
 64 63 62 
 65 66 67 
 13 15 68 
 69 68 15 
 70 71 72 
 19 73 20 
 74 75 76 
 77 15 78 
 79 80 81 
 82 83 84 
 85 86 87 
 88 89 90 
 51 50 91 
 92 79 81 
 93 76 75 
 65 94 66 
 22 24 62 
 1 95 2 
 88 96 89 
 97 98 99 
 100 101 102 
 1 39 95 
 103 104 105 
 106 107 108 
 90 109 110 
 88 111 96 
 77 87 86 
 106 112 107 
 113 114 3 
 1 3 114 
 115 83 82 
 103 116 104 
 117 118 119 
 29 5 120 
 117 119 121 
 15 14 78 
 122 123 124 
 125 126 127 
 128 129 130 
 131 128 130 
 132 109 90 
 133 134 128 
 135 136 137 
 138 139 140 
 141 96 142 
 97 28 27 
 143 125 127 
 2 137 144 
 71 145 72 
 97 27 98 
 116 146 104 
 22 147 23 
 141 148 96 
 88 90 149 
 69 15 108 
 150 55 57 
 151 102 101 
 135 152 136 
 85 153 86 
 103 105 154 
 155 156 157 
 158 139 138 
 13 159 14 
 160 161 162 
 163 162 161 
 164 165 166 
 167 48 47 
 26 28 168 
 169 170 171 
 29 84 6 
 172 6 84 
 65 173 174 
 175 92 81 
 176 177 99 
 178 9 8 
 4 179 5 
 22 180 147 
 4 181 182 
 183 156 155 
 184 71 142 
 141 142 71 
 175 140 139 
 49 51 185 
 186 185 51 
 77 86 15 
 31 33 47 
 4 6 187 
 4 187 181 
 188 20 43 
 172 189 6 
 11 146 12 
 141 190 21 
 191 59 192 
 133 193 194 
 172 84 83 
 195 196 197 
 198 199 200 
 101 83 17 
 201 196 202 
 191 202 196 
 151 16 203 
 109 203 16 
 151 101 17 
 148 20 188 
 21 20 148 
 178 204 9 
 205 9 204 
 106 86 153 
 206 3 207 
 195 208 196 
 133 194 197 
 158 171 170 
 115 18 17 
 97 99 209 
 210 128 134 
 175 211 92 
 210 92 211 
 212 213 214 
 65 215 173 
 216 217 213 
 70 72 33 
 176 99 98 
 216 218 217 
 70 219 71 
 100 12 146 
 206 220 215 
 216 121 119 
 221 222 223 
 65 174 224 
 225 226 138 
 201 227 228 
 229 228 227 
 34 230 231 
 232 233 78 
 164 234 165 
 235 14 159 
 212 236 213 
 183 237 63 
 206 238 3 
 29 239 82 
 191 208 59 
 240 144 137 
 241 120 5 
 141 71 219 
 210 35 92 
 242 170 169 
 243 244 62 
 245 230 246 
 34 36 246 
 21 190 247 
 55 248 56 
 113 249 67 
 163 155 250 
 178 250 155 
 235 25 9 
 136 251 137 
 206 252 220 
 253 254 255 
 256 112 257 
 184 145 71 
 143 230 245 
 258 157 156 
 216 119 259 
 260 259 119 
 256 261 112 
 2 95 137 
 232 262 233 
 263 200 39 
 135 39 200 
 264 46 48 
 92 35 79 
 35 34 79 
 34 246 230 
 263 39 38 
 65 67 249 
 240 137 251 
 194 220 252 
 198 200 265 
 199 152 200 
 43 20 266 
 225 81 267 
 160 82 239 
 64 62 244 
 160 162 82 
 115 82 162 
 118 268 119 
 269 171 138 
 19 21 247 
 225 138 140 
 131 173 220 
 215 220 173 
 2 207 3 
 270 50 177 
 49 177 50 
 141 21 148 
 205 271 9 
 235 9 271 
 26 272 27 
 188 89 148 
 96 148 89 
 34 231 79 
 158 138 171 
 7 25 273 
 29 82 84 
 65 249 215 
 206 215 238 
 172 101 116 
 100 116 101 
 270 227 202 
 107 214 213 
 113 67 274 
 100 102 12 
 100 146 116 
 24 127 126 
 80 267 81 
 184 275 276 
 277 276 275 
 113 3 238 
 199 278 152 
 269 138 226 
 183 63 156 
 24 23 127 
 260 119 279 
 205 168 28 
 103 181 187 
 280 255 254 
 160 281 161 
 160 282 281 
 64 156 63 
 167 276 48 
 277 48 276 
 74 76 283 
 270 202 284 
 167 72 145 
 45 284 192 
 45 50 284 
 258 168 204 
 205 204 168 
 164 285 27 
 59 42 192 
 286 57 287 
 56 287 57 
 288 130 129 
 269 169 171 
 289 209 290 
 133 128 193 
 133 197 196 
 291 166 165 
 15 86 108 
 143 127 292 
 40 42 293 
 99 177 290 
 164 27 272 
 294 273 25 
 295 114 274 
 113 274 114 
 24 126 62 
 54 237 282 
 45 91 50 
 7 296 8 
 286 51 91 
 210 134 297 
 118 298 268 
 201 202 227 
 109 132 203 
 77 78 233 
 241 5 179 
 191 196 208 
 184 142 111 
 96 111 142 
 61 293 42 
 120 299 300 
 103 189 116 
 163 161 155 
 183 155 161 
 64 301 156 
 291 246 36 
 201 302 196 
 133 196 302 
 44 12 102 
 186 51 287 
 286 287 51 
 103 154 181 
 133 302 134 
 237 180 63 
 222 303 223 
 286 41 304 
 40 304 41 
 305 304 306 
 191 284 202 
 307 308 248 
 243 125 165 
 30 8 296 
 309 20 73 
 243 234 244 
 99 290 209 
 80 123 267 
 29 120 310 
 46 31 47 
 4 182 179 
 119 268 279 
 80 231 123 
 124 123 231 
 243 165 234 
 270 311 227 
 106 257 112 
 135 95 39 
 241 299 120 
 188 43 312 
 313 305 306 
 45 192 42 
 107 217 108 
 221 223 254 
 143 292 230 
 124 230 292 
 103 187 189 
 97 233 262 
 61 223 293 
 61 314 223 
 291 36 315 
 229 227 316 
 11 317 104 
 37 318 36 
 56 248 308 
 183 281 237 
 135 200 152 
 44 312 43 
 106 108 86 
 291 165 125 
 69 108 217 
 54 282 58 
 319 198 265 
 205 28 320 
 319 265 321 
 235 322 14 
 77 233 87 
 289 87 233 
 97 262 28 
 286 304 323 
 194 193 220 
 222 313 303 
 124 231 230 
 90 89 312 
 26 244 234 
 52 300 53 
 324 253 255 
 253 221 254 
 325 181 154 
 109 16 296 
 326 327 328 
 74 328 327 
 131 193 128 
 93 259 76 
 260 76 259 
 106 153 257 
 307 257 153 
 258 156 301 
 229 329 166 
 294 25 159 
 235 159 25 
 151 203 102 
 44 102 203 
 164 166 329 
 277 275 279 
 260 279 275 
 10 43 266 
 188 312 89 
 7 273 330 
 289 290 185 
 64 244 301 
 124 292 122 
 184 331 275 
 172 116 189 
 178 155 157 
 243 62 126 
 49 290 177 
 30 296 16 
 286 323 57 
 172 83 101 
 210 297 35 
 286 91 41 
 164 272 234 
 27 285 98 
 260 275 332 
 135 137 95 
 29 310 239 
 263 265 200 
 167 47 72 
 33 72 47 
 109 330 110 
 326 110 330 
 97 209 233 
 289 233 209 
 7 330 296 
 55 333 248 
 176 98 285 
 216 213 121 
 236 121 213 
 109 296 330 
 70 334 219 
 88 149 328 
 326 328 149 
 143 245 125 
 243 126 125 
 210 129 128 
 291 125 245 
 335 336 328 
 256 257 337 
 176 285 329 
 67 66 338 
 22 63 180 
 335 328 283 
 333 256 337 
 93 68 218 
 37 297 339 
 184 276 145 
 90 312 132 
 90 110 149 
 26 234 272 
 88 328 336 
 340 219 334 
 136 341 255 
 324 255 341 
 134 339 297 
 65 224 94 
 40 306 304 
 184 111 331 
 151 17 16 
 291 315 166 
 107 213 217 
 93 218 259 
 216 259 218 
 115 162 18 
 163 18 162 
 11 104 146 
 105 104 317 
 69 218 68 
 74 283 328 
 88 336 111 
 305 323 304 
 275 331 332 
 236 117 121 
 277 268 342 
 298 342 268 
 309 266 20 
 298 264 342 
 186 343 185 
 289 185 343 
 26 168 301 
 258 301 168 
 195 197 344 
 264 48 342 
 335 332 331 
 229 316 329 
 277 342 48 
 52 239 310 
 280 251 255 
 136 255 251 
 131 220 193 
 307 337 257 
 313 306 303 
 178 157 204 
 160 58 282 
 194 344 197 
 115 17 83 
 6 189 187 
 305 150 323 
 28 262 320 
 44 132 312 
 160 239 58 
 174 345 170 
 85 87 343 
 289 343 87 
 263 321 265 
 232 78 322 
 242 94 224 
 270 284 50 
 14 322 78 
 335 76 332 
 260 332 76 
 229 318 228 
 69 217 218 
 261 212 214 
 191 192 284 
 26 301 244 
 277 279 268 
 30 250 8 
 178 8 250 
 335 283 76 
 223 303 293 
 40 293 303 
 278 324 341 
 93 75 68 
 291 245 246 
 13 75 346 
 13 346 159 
 225 140 81 
 340 247 190 
 59 208 347 
 195 347 208 
 85 343 348 
 186 348 343 
 229 166 315 
 240 349 350 
 2 144 207 
 351 207 144 
 175 81 140 
 352 347 353 
 80 79 231 
 175 139 211 
 288 211 139 
 237 281 282 
 49 185 290 
 183 161 281 
 37 339 228 
 352 60 347 
 278 341 152 
 136 152 341 
 176 329 316 
 37 35 297 
 45 41 91 
 174 170 224 
 40 303 306 
 52 58 239 
 258 204 157 
 44 203 132 
 13 68 75 
 352 354 60 
 61 60 354 
 74 327 346 
 335 331 336 
 111 336 331 
 164 329 285 
 307 348 308 
 158 170 345 
 85 348 153 
 307 153 348 
 326 330 273 
 141 219 190 
 340 190 219 
 232 271 320 
 205 320 271 
 280 349 251 
 229 315 318 
 67 338 274 
 295 274 338 
 294 346 327 
 270 177 311 
 176 311 177 
 150 57 323 
 167 145 276 
 201 339 302 
 134 302 339 
 280 354 349 
 232 322 271 
 201 228 339 
 307 248 337 
 235 271 322 
 61 354 314 
 261 214 112 
 74 346 75 
 352 350 349 
 37 228 318 
 113 238 249 
 215 249 238 
 30 18 250 
 163 250 18 
 186 287 308 
 56 308 287 
 240 251 349 
 107 112 214 
 240 350 144 
 294 159 346 
 206 207 252 
 333 337 248 
 351 252 207 
 326 149 110 
 158 345 139 
 288 139 345 
 352 349 354 
 195 344 353 
 232 320 262 
 131 130 173 
 174 173 130 
 352 353 350 
 351 350 353 
 351 353 344 
 242 224 170 
 280 254 314 
 223 314 254 
 351 344 252 
 294 327 273 
 326 273 327 
 280 314 354 
 195 353 347 
 105 355 154 
 325 154 355 
 194 252 344 
 120 300 310 
 288 129 211 
 210 211 129 
 288 345 130 
 174 130 345 
 351 144 350 
 186 308 348 
 36 318 315 
 59 347 60 
 176 316 311 
 52 310 300 
 227 311 316 
