TITLE      =  "2D FE Unstructured grid data" 
VARIABLES = "X", "Y", "U", "Dom" 
ZONE T="P1", F=FEPOINT, N= 374 E= 673  ET=TRIANGLE 
 9.189115 7.268899 16.458002 4
 9.026397 7.154194 16.180573 4
 9.203280 7.127573 16.330835 4
 9.066470 7.300193 16.366636 4
 8.863484 7.510697 16.374151 4
 8.787069 7.324305 16.111355 4
 8.909194 7.389845 16.299036 4
 8.739079 7.475795 16.214857 4
 9.437507 7.231271 16.668762 4
 9.319554 7.073822 16.393353 4
 9.461488 7.110020 16.571499 4
 9.295344 7.235176 16.530506 4
 8.191681 8.238590 16.430267 4
 8.284565 8.284565 16.569124 4
 8.229992 8.408799 16.638796 4
 8.860770 7.173469 16.034222 4
 8.949093 7.276841 16.225918 4
 8.872752 8.273797 17.146549 4
 8.712487 8.220457 16.932936 4
 8.827452 8.119555 16.946987 4
 8.801050 9.198662 17.999737 4
 8.869520 9.071326 17.940876 4
 8.952404 9.183449 18.135868 4
 8.229831 7.968397 16.198202 4
 8.261547 7.818151 16.079697 4
 8.329817 7.931155 16.260963 4
 8.660706 9.433530 18.094242 4
 8.734312 9.573100 18.307434 4
 8.588496 9.554889 18.143406 4
 9.209220 8.478637 17.687862 4
 9.133777 8.313864 17.447630 4
 9.279152 8.331158 17.610302 4
 8.383783 8.474099 16.857878 4
 8.366885 8.338261 16.705145 4
 8.402851 7.835985 16.238806 4
 8.328498 8.202458 16.530947 4
 8.373713 7.688981 16.062674 4
 8.532495 9.432484 17.964996 4
 10.000000 8.333333 18.333332 4
 10.000000 8.472222 18.472221 4
 9.833633 8.423933 18.257566 4
 8.964221 8.030745 16.994944 4
 9.014147 8.175214 17.189358 4
 10.000000 8.194445 18.194445 4
 9.872749 8.260237 18.132994 4
 9.866494 8.090914 17.957418 4
 8.781828 8.801836 17.583672 4
 8.649385 8.738236 17.387629 4
 8.818125 8.659156 17.477283 4
 9.130144 7.937394 17.067528 4
 9.225966 7.866392 17.092340 4
 9.220140 8.040486 17.260618 4
 9.688526 9.331212 19.019754 4
 9.532619 9.391139 18.923769 4
 9.557771 9.270160 18.827942 4
 8.330523 7.491629 15.822125 4
 8.214594 7.419095 15.633668 4
 8.358824 7.344438 15.703247 4
 10.000000 6.805555 16.805555 4
 9.831214 6.780807 16.612000 4
 9.877488 6.669086 16.546572 4
 8.425339 7.441966 15.867289 4
 9.319926 7.938755 17.258654 4
 10.000000 8.611111 18.611111 4
 9.850028 8.713051 18.563080 4
 9.900642 8.541667 18.442318 4
 8.611111 10.000000 18.611111 4
 8.541667 9.900642 18.442326 4
 8.713051 9.850028 18.563086 4
 9.758457 7.177536 16.935978 4
 9.807975 7.302424 17.110390 4
 9.676048 7.282984 16.959028 4
 8.099681 7.753994 15.853643 4
 7.956195 7.781517 15.737654 4
 8.013730 7.613206 15.626922 4
 9.441229 7.448674 16.889889 4
 9.530840 7.331017 16.861847 4
 9.560238 7.471699 17.031914 4
 9.642888 7.392735 17.035620 4
 9.660365 8.387761 18.048122 4
 9.581254 8.240078 17.821329 4
 9.731511 8.276791 18.008295 4
 9.166667 10.000000 19.166668 4
 9.060560 9.875159 18.935726 4
 9.228572 9.881005 19.109592 4
 10.000000 9.166667 19.166668 4
 9.881005 9.228572 19.109566 4
 9.878537 9.047251 18.925776 4
 9.099599 8.461967 17.561583 4
 9.624427 9.482075 19.106499 4
 9.421269 7.660341 17.081583 4
 9.493247 7.573498 17.066734 4
 9.560072 7.710315 17.270361 4
 9.420495 8.666971 18.087471 4
 9.306875 8.757733 18.064610 4
 9.300120 8.605878 17.905994 4
 8.795718 8.419788 17.215490 4
 8.723754 8.332795 17.056543 4
 9.789640 8.569086 18.358730 4
 9.690856 8.508653 18.199520 4
 8.204013 8.135688 16.339684 4
 9.730481 9.446910 19.177402 4
 9.731496 9.595981 19.327478 4
 9.083322 8.761953 17.845278 4
 9.034164 8.900838 17.935022 4
 8.968506 8.822564 17.791100 4
 9.328373 6.770059 16.098425 4
 9.491693 6.805404 16.297085 4
 9.389372 6.885819 16.275181 4
 9.600762 7.588399 17.189144 4
 9.609865 8.588952 18.198833 4
 9.558648 8.718589 18.277235 4
 9.508277 8.578885 18.087158 4
 9.355014 8.099744 17.454739 4
 8.916683 8.432035 17.348721 4
 9.808538 9.510171 19.318703 4
 9.659810 9.172133 18.831961 4
 9.140837 8.902877 18.043743 4
 9.381773 7.344525 16.726288 4
 8.456162 8.111847 16.567993 4
 8.573744 8.175099 16.748829 4
 8.469419 8.267972 16.737377 4
 9.440724 8.011049 17.451759 4
 9.875747 7.204134 17.079865 4
 9.590465 9.587537 19.177998 4
 10.000000 8.750000 18.750000 4
 8.750000 10.000000 18.750000 4
 8.299604 8.578965 16.878571 4
 9.857409 9.655199 19.512606 4
 9.706584 9.735977 19.442558 4
 9.492661 8.865435 18.358105 4
 9.436858 9.008142 18.444998 4
 9.380994 8.853726 18.234734 4
 8.165002 7.887933 16.052916 4
 9.803100 9.803100 19.606205 4
 8.568278 9.788975 18.357252 4
 8.410002 9.835957 18.245966 4
 8.504643 9.684635 18.189289 4
 8.580176 8.027264 16.607428 4
 9.036724 9.089385 18.126127 4
 10.000000 7.638889 17.638889 4
 10.000000 7.777778 17.777779 4
 9.844862 7.724136 17.568996 4
 8.218075 7.644967 15.863022 4
 9.905751 7.569445 17.475187 4
 9.505859 9.805383 19.311243 4
 9.573610 9.708761 19.282372 4
 9.645881 9.861273 19.507160 4
 8.545636 7.859164 16.404781 4
 8.439276 7.975345 16.414606 4
 8.943639 9.813982 18.757627 4
 9.063405 9.701385 18.764801 4
 8.789272 9.702189 18.491465 4
 8.879976 9.577625 18.457615 4
 8.928077 9.695581 18.623665 4
 9.348514 8.469637 17.818142 4
 9.001785 8.516606 17.518394 4
 8.965353 8.661506 17.626862 4
 8.903607 8.562360 17.465965 4
 9.085503 8.581209 17.666714 4
 9.039663 7.817400 16.857035 4
 9.031474 7.947983 16.979446 4
 9.294868 8.933568 18.228445 4
 9.322405 9.700066 19.022469 4
 9.356080 9.550115 18.906208 4
 9.444659 9.701771 19.146433 4
 9.480726 9.589083 19.069820 4
 8.688490 8.584172 17.272661 4
 9.412123 8.248993 17.661102 4
 9.472584 8.137895 17.610466 4
 8.678230 9.297966 17.976227 4
 8.555108 9.297521 17.852650 4
 9.675336 8.168266 17.843597 4
 8.677230 8.118213 16.795420 4
 8.641857 7.558207 16.200050 4
 8.648011 7.383770 16.031761 4
 9.270805 8.205359 17.476158 4
 9.199769 8.809722 18.009510 4
 9.189078 8.646520 17.835598 4
 9.042658 7.419219 16.461861 4
 9.148010 7.811317 16.959305 4
 8.535125 7.462648 15.997765 4
 10.000000 6.666667 16.666668 4
 8.980009 8.994673 17.974689 4
 8.880564 9.289346 18.169939 4
 9.650190 9.662862 19.313051 4
 9.773701 8.182172 17.955881 4
 8.715010 9.002016 17.717043 4
 8.869476 8.919353 17.788845 4
 8.483023 7.750613 16.233618 4
 9.643176 6.816199 16.459368 4
 9.598319 6.671058 16.269365 4
 9.276552 6.921955 16.198490 4
 9.407954 6.992599 16.400545 4
 9.131266 9.788682 18.919950 4
 9.786017 9.135469 18.921478 4
 9.599318 7.152754 16.752060 4
 9.444445 10.000000 19.444445 4
 9.305555 10.000000 19.305555 4
 9.375769 9.846493 19.222244 4
 10.000000 9.305555 19.305555 4
 10.000000 9.444445 19.444445 4
 9.847774 9.376101 19.223888 4
 9.579082 8.071854 17.650917 4
 8.472222 10.000000 18.472221 4
 9.150931 8.167719 17.318644 4
 9.419034 8.375373 17.794409 4
 9.189544 9.629596 18.819157 4
 9.243043 9.770309 19.013351 4
 8.997957 8.295401 17.293360 4
 8.387732 8.693430 17.081144 4
 8.419946 8.576487 16.996437 4
 8.535817 8.623773 17.159592 4
 8.045691 7.919219 15.964903 4
 9.404091 8.558254 17.962345 4
 10.000000 7.361111 17.361111 4
 9.884402 7.430390 17.314800 4
 9.916790 7.300453 17.217243 4
 8.654115 8.866799 17.520926 4
 9.431934 8.772491 18.204430 4
 8.492793 8.512167 17.004965 4
 9.121969 9.285225 18.407211 4
 9.221124 9.180266 18.401407 4
 9.282174 9.297025 18.579212 4
 8.157418 8.042859 16.200260 4
 9.791536 7.574777 17.366306 4
 9.752471 7.414346 17.166811 4
 9.680796 7.517345 17.198116 4
 9.527425 8.347806 17.875227 4
 9.512856 9.909224 19.422081 4
 9.913005 9.513889 19.426893 4
 8.717513 8.021095 16.738605 4
 8.315578 8.057897 16.373457 4
 8.654727 9.690136 18.344866 4
 10.000000 7.500000 17.500000 4
 8.426731 7.554425 15.981134 4
 8.538711 7.638179 16.176872 4
 9.369934 9.169523 18.539469 4
 9.507711 9.150927 18.658646 4
 9.407161 9.290156 18.697332 4
 9.213453 9.470921 18.684389 4
 8.755107 8.897501 17.652618 4
 9.722222 10.000000 19.722221 4
 9.583333 10.000000 19.583332 4
 10.000000 9.583333 19.583332 4
 10.000000 9.722222 19.722221 4
 9.886647 6.882835 16.769484 4
 8.884953 8.758950 17.643908 4
 10.000000 7.083333 17.083332 4
 9.858798 7.079720 16.938499 4
 9.697988 7.781382 17.479364 4
 9.697448 7.657166 17.354599 4
 8.844609 9.791304 18.635925 4
 8.541244 8.860346 17.401590 4
 10.000000 7.222222 17.222221 4
 8.117773 7.631908 15.749648 4
 10.000000 8.055555 18.055555 4
 9.255507 7.360882 16.616375 4
 9.884976 7.874085 17.759060 4
 9.624385 7.011266 16.635649 4
 9.720688 7.050440 16.771109 4
 8.681143 7.679514 16.360630 4
 9.089998 9.179560 18.269575 4
 8.590138 7.746810 16.336941 4
 9.027778 10.000000 19.027779 4
 10.000000 9.027778 19.027779 4
 8.781221 9.350517 18.131763 4
 8.654994 9.188523 17.843533 4
 9.001717 9.294336 18.296068 4
 8.901231 9.415819 18.317074 4
 8.789835 9.467961 18.257809 4
 9.084099 7.575365 16.659464 4
 9.182749 7.480721 16.663454 4
 9.200134 7.619064 16.819181 4
 8.139606 7.515463 15.655047 4
 8.846429 7.983572 16.829994 4
 8.585171 8.996217 17.581406 4
 8.051931 8.055278 16.107195 4
 9.719251 9.037647 18.756907 4
 9.592237 9.045720 18.637966 4
 9.200950 8.995839 18.196802 4
 9.793027 7.973966 17.766981 4
 9.711129 8.070436 17.781563 4
 9.649418 7.925094 17.574490 4
 9.774055 7.855732 17.629787 4
 9.067988 9.416265 18.484274 4
 9.045720 9.592237 18.637976 4
 9.700743 8.660844 18.361605 4
 9.695756 8.787876 18.483644 4
 8.780966 7.599359 16.380310 4
 9.195999 9.364137 18.560143 4
 9.815688 8.941504 18.757193 4
 8.568451 7.303868 15.872293 4
 8.475490 7.356688 15.832157 4
 9.288770 9.063309 18.352089 4
 9.562283 8.942449 18.504734 4
 8.971289 7.542330 16.513596 4
 9.461425 7.753967 17.215378 4
 9.411857 9.411857 18.823729 4
 9.486769 9.490499 18.977282 4
 9.476728 6.925831 16.402548 4
 8.587319 8.288657 16.875956 4
 9.764725 6.604926 16.369648 4
 9.719796 6.723753 16.443541 4
 8.969739 9.506767 18.476509 4
 9.032669 8.395570 17.428230 4
 9.360974 7.795764 17.156734 4
 9.230308 7.740407 16.970682 4
 8.505053 8.391668 16.896696 4
 8.798096 8.528203 17.326296 4
 9.279855 7.560593 16.840427 4
 8.491088 7.224000 15.715065 4
 8.243887 7.530795 15.774662 4
 10.000000 7.916667 17.916668 4
 8.938119 7.904119 16.842230 4
 10.000000 10.000000 20.000000 4
 9.861111 10.000000 19.861111 4
 9.892176 9.892176 19.784355 4
 10.000000 9.861111 19.861111 4
 9.113083 9.518191 18.631283 4
 8.702957 8.452410 17.155375 4
 9.895024 8.848654 18.743687 4
 8.849010 9.894740 18.743752 4
 9.797285 6.954320 16.751608 4
 9.755142 6.843324 16.598471 4
 8.816823 7.728460 16.545261 4
 8.696080 7.813788 16.509844 4
 8.830438 7.855295 16.685719 4
 8.316641 7.582819 15.899434 4
 9.305600 9.407574 18.713190 4
 7.945772 8.015533 15.961288 4
 8.641073 7.230170 15.871224 4
 9.772626 9.248697 19.021330 4
 8.603163 8.493831 17.097000 4
 9.085225 8.050256 17.135469 4
 9.786070 8.846450 18.632528 4
 9.784898 9.911309 19.696188 4
 9.908722 9.780123 19.688837 4
 9.170499 9.091424 18.261946 4
 8.621593 8.387638 17.009235 4
 8.896052 7.641379 16.537413 4
 9.003117 7.679253 16.682365 4
 8.920702 7.770984 16.691662 4
 9.680498 8.920775 18.601276 4
 10.000000 8.888889 18.888889 4
 8.888889 10.000000 18.888889 4
 8.731964 9.111744 17.843735 4
 8.660126 7.930956 16.591057 4
 9.309827 7.662305 16.972120 4
 9.319504 7.459493 16.778978 4
 8.092755 8.164125 16.256868 4
 8.757175 7.928904 16.686064 4
 9.113971 7.694994 16.808941 4
 9.473185 8.467130 17.940313 4
 9.524220 7.030573 16.554783 4
 9.534204 7.948786 17.482979 4
 9.915918 6.578643 16.494556 4
 9.605901 7.830323 17.436224 4
 9.598125 8.847374 18.445498 4
 10.000000 6.944445 16.944445 4
 9.147300 7.365983 16.513269 4
 9.583376 8.473415 18.056801 4
 9.503384 7.849445 17.352818 4
 9.414783 7.904535 17.319300 4
 9.906357 6.987324 16.893682 4
 9.577426 6.911754 16.489170 4
 7.968060 8.127023 16.095072 4
 9.907170 7.983811 17.890991 4
 9.377488 7.560817 16.938293 4
 8.953975 9.916777 18.870749 4
 9.918360 8.952032 18.870386 4
 8.642211 9.086759 17.728977 4
 9.095088 8.995237 18.090342 4
 9.685886 6.927042 16.612928 4
 1 2 3 
 4 2 1 
 5 6 7 
 8 6 5 
 9 10 11 
 12 10 9 
 13 14 15 
 16 17 6 
 18 19 20 
 21 22 23 
 24 25 26 
 27 28 29 
 30 31 32 
 33 15 34 
 35 26 25 
 36 14 13 
 34 15 14 
 37 35 25 
 27 29 38 
 39 40 41 
 42 43 20 
 18 20 43 
 44 45 46 
 47 48 49 
 50 51 52 
 53 54 55 
 56 57 58 
 59 60 61 
 62 56 58 
 51 63 52 
 64 65 66 
 67 68 69 
 70 71 72 
 73 74 75 
 76 77 78 
 79 78 77 
 80 81 82 
 83 84 85 
 86 87 88 
 30 89 31 
 53 90 54 
 91 92 93 
 94 95 96 
 18 97 98 
 18 98 19 
 99 100 41 
 101 36 13 
 90 102 103 
 7 6 17 
 104 105 106 
 80 41 100 
 107 108 109 
 110 93 92 
 111 112 113 
 113 112 94 
 63 114 52 
 18 115 97 
 3 10 12 
 116 103 102 
 53 55 117 
 104 118 105 
 76 119 77 
 120 121 122 
 63 123 114 
 70 124 71 
 90 103 125 
 64 126 65 
 127 67 69 
 128 15 33 
 129 130 103 
 131 132 133 
 24 134 25 
 135 130 129 
 136 137 138 
 120 139 121 
 23 22 140 
 141 142 143 
 37 25 144 
 141 143 145 
 146 147 148 
 148 147 130 
 149 150 35 
 151 152 84 
 153 154 155 
 30 156 96 
 157 158 159 
 160 158 157 
 161 50 162 
 163 133 132 
 164 165 166 
 167 166 165 
 53 102 90 
 168 49 48 
 169 114 170 
 171 27 172 
 81 173 82 
 139 174 121 
 172 27 38 
 8 175 176 
 169 177 114 
 95 178 179 
 7 17 180 
 4 180 17 
 161 181 50 
 182 176 175 
 183 59 61 
 184 140 22 
 120 122 36 
 104 179 178 
 21 23 185 
 186 125 103 
 187 46 45 
 188 189 22 
 149 35 190 
 37 190 35 
 104 106 158 
 191 108 192 
 99 66 65 
 136 69 68 
 193 109 194 
 195 85 84 
 196 88 87 
 193 194 10 
 99 41 66 
 136 68 137 
 163 178 95 
 77 9 197 
 198 199 200 
 201 202 203 
 204 81 170 
 169 170 81 
 205 137 68 
 40 66 41 
 79 77 72 
 39 41 45 
 11 197 9 
 195 84 152 
 206 31 43 
 19 174 20 
 169 207 32 
 195 208 209 
 195 152 208 
 163 95 133 
 18 210 115 
 177 31 206 
 32 31 177 
 211 212 213 
 73 214 74 
 96 156 215 
 146 200 166 
 164 166 200 
 216 217 218 
 47 219 48 
 94 220 95 
 128 33 212 
 221 212 33 
 222 223 224 
 214 134 225 
 226 227 217 
 80 82 41 
 226 228 227 
 80 229 81 
 198 200 230 
 202 231 203 
 232 20 174 
 101 233 36 
 226 145 143 
 153 28 154 
 136 234 69 
 153 69 234 
 216 235 217 
 37 236 237 
 238 239 240 
 55 240 239 
 241 165 208 
 164 208 165 
 73 144 25 
 188 242 189 
 169 81 229 
 243 244 148 
 245 246 129 
 32 207 156 
 59 247 60 
 47 248 189 
 106 189 248 
 104 158 160 
 95 179 96 
 163 118 178 
 159 158 49 
 249 124 250 
 204 173 81 
 251 252 143 
 226 143 252 
 153 155 253 
 219 254 48 
 249 255 124 
 73 75 256 
 257 44 46 
 3 12 1 
 258 1 12 
 43 31 210 
 24 225 134 
 182 237 236 
 71 227 72 
 30 179 160 
 142 259 143 
 260 261 197 
 30 32 156 
 262 237 175 
 182 175 237 
 222 263 223 
 262 264 237 
 29 28 234 
 83 265 84 
 266 86 88 
 169 32 177 
 77 119 9 
 21 267 171 
 206 52 177 
 114 177 52 
 21 171 268 
 222 269 263 
 23 263 269 
 270 154 271 
 70 197 261 
 146 230 200 
 116 203 231 
 272 273 274 
 37 237 190 
 258 12 119 
 275 256 75 
 71 218 217 
 232 276 20 
 232 174 139 
 188 277 219 
 104 178 118 
 149 139 150 
 278 214 225 
 196 117 279 
 280 279 117 
 163 281 118 
 282 283 284 
 204 284 283 
 30 96 179 
 251 143 285 
 222 286 269 
 270 269 286 
 287 155 154 
 99 65 288 
 289 288 65 
 8 290 175 
 241 286 291 
 292 88 279 
 282 46 283 
 187 283 46 
 79 72 227 
 111 288 112 
 182 293 176 
 184 22 189 
 182 294 293 
 238 295 132 
 163 132 295 
 131 296 132 
 7 180 297 
 222 291 286 
 91 93 298 
 238 132 239 
 280 239 132 
 299 300 165 
 187 82 173 
 299 240 54 
 55 54 240 
 222 224 291 
 184 189 105 
 199 85 200 
 201 203 87 
 301 109 108 
 238 224 223 
 151 155 152 
 19 98 302 
 303 61 304 
 60 304 61 
 245 129 231 
 244 230 148 
 287 154 305 
 77 197 72 
 306 115 210 
 63 51 307 
 308 307 51 
 270 305 154 
 221 33 309 
 106 105 189 
 159 310 115 
 196 279 88 
 311 274 273 
 238 240 224 
 116 231 129 
 146 148 230 
 58 312 294 
 193 107 109 
 49 158 248 
 275 57 313 
 24 233 225 
 101 225 233 
 97 115 310 
 142 314 259 
 161 162 315 
 316 317 318 
 316 318 319 
 116 102 203 
 53 203 102 
 7 297 5 
 241 320 286 
 164 209 208 
 168 321 310 
 126 322 65 
 127 69 323 
 204 170 123 
 114 123 170 
 4 17 2 
 16 2 17 
 30 160 89 
 8 176 6 
 262 175 290 
 324 325 247 
 275 144 256 
 262 326 327 
 328 327 326 
 287 208 152 
 37 144 329 
 55 239 117 
 280 117 239 
 167 165 300 
 289 112 288 
 280 132 296 
 299 165 330 
 42 20 276 
 303 304 192 
 191 192 304 
 104 160 179 
 278 331 214 
 332 6 176 
 120 233 150 
 164 200 209 
 53 333 203 
 306 31 89 
 275 313 144 
 44 39 45 
 143 259 285 
 168 213 334 
 154 28 271 
 70 250 124 
 23 269 185 
 73 256 144 
 206 43 335 
 60 247 325 
 270 286 305 
 153 253 69 
 289 65 336 
 47 242 219 
 188 219 242 
 243 148 337 
 135 337 148 
 135 129 338 
 246 338 129 
 339 223 263 
 199 83 85 
 86 201 87 
 19 302 121 
 340 302 98 
 168 334 321 
 341 342 343 
 299 330 240 
 224 240 330 
 73 134 214 
 332 293 312 
 186 103 130 
 42 335 43 
 70 72 197 
 153 234 28 
 58 294 62 
 221 334 213 
 292 279 344 
 126 345 322 
 346 127 323 
 241 330 165 
 272 342 297 
 135 148 130 
 116 129 103 
 272 180 273 
 186 130 147 
 136 138 234 
 29 234 138 
 50 52 335 
 188 22 347 
 21 347 22 
 99 288 100 
 111 100 288 
 341 343 326 
 233 26 150 
 94 96 215 
 221 213 212 
 149 348 139 
 73 25 134 
 219 277 254 
 27 171 267 
 91 307 349 
 308 349 307 
 258 350 273 
 110 252 93 
 251 93 252 
 122 309 34 
 53 117 333 
 311 273 350 
 196 333 117 
 278 225 351 
 101 351 225 
 301 194 109 
 37 329 236 
 42 276 315 
 328 315 276 
 262 327 264 
 287 320 208 
 241 208 320 
 120 150 139 
 11 10 194 
 328 352 327 
 282 284 285 
 251 285 284 
 122 302 309 
 18 43 210 
 272 353 342 
 149 327 348 
 206 335 52 
 272 274 353 
 232 352 276 
 354 215 156 
 232 139 348 
 159 49 310 
 260 197 355 
 204 356 284 
 270 271 267 
 27 267 271 
 280 344 279 
 33 34 309 
 200 85 209 
 203 333 87 
 289 336 344 
 292 344 336 
 303 357 61 
 221 309 334 
 340 334 309 
 120 36 233 
 27 271 28 
 251 284 358 
 187 45 82 
 41 82 45 
 90 125 300 
 270 267 185 
 168 310 49 
 289 344 359 
 56 313 57 
 289 359 112 
 59 360 247 
 95 220 133 
 168 48 213 
 226 217 145 
 235 145 217 
 180 361 273 
 80 362 229 
 151 253 155 
 70 261 250 
 324 250 261 
 363 364 307 
 249 250 365 
 131 220 112 
 94 112 220 
 65 322 336 
 69 253 323 
 340 309 302 
 21 185 267 
 287 305 320 
 286 320 305 
 327 352 348 
 301 366 355 
 363 307 298 
 360 249 365 
 110 78 228 
 204 283 173 
 191 366 108 
 301 108 366 
 50 335 162 
 278 351 367 
 50 181 51 
 11 355 197 
 56 236 329 
 238 223 295 
 128 212 211 
 40 64 66 
 67 205 68 
 63 307 364 
 354 229 362 
 8 5 290 
 280 296 344 
 47 49 248 
 21 268 347 
 204 123 356 
 131 112 359 
 172 268 171 
 71 217 227 
 110 228 252 
 226 252 228 
 19 121 174 
 122 121 302 
 270 185 269 
 79 228 78 
 91 298 307 
 63 364 123 
 339 295 223 
 284 356 358 
 235 141 145 
 47 189 242 
 12 9 119 
 149 264 327 
 282 259 368 
 314 368 259 
 306 210 31 
 272 297 180 
 90 300 54 
 106 248 158 
 314 257 368 
 317 243 337 
 246 319 338 
 257 46 368 
 260 355 366 
 363 358 356 
 282 368 46 
 341 297 342 
 324 365 250 
 182 62 294 
 97 310 321 
 244 198 230 
 202 245 231 
 167 147 166 
 161 343 342 
 42 162 335 
 167 125 147 
 182 236 62 
 76 369 350 
 328 343 315 
 341 326 290 
 262 290 326 
 76 92 369 
 167 300 125 
 265 346 370 
 345 266 371 
 363 93 358 
 251 358 93 
 258 119 350 
 79 227 228 
 255 216 218 
 161 315 343 
 122 34 36 
 14 36 34 
 282 285 259 
 363 298 93 
 76 350 119 
 196 87 333 
 195 209 85 
 110 92 78 
 354 156 207 
 339 281 295 
 163 295 281 
 24 26 233 
 339 263 140 
 4 361 180 
 188 372 277 
 161 353 181 
 308 181 353 
 341 5 297 
 339 140 373 
 328 326 343 
 287 152 155 
 312 293 294 
 332 176 293 
 101 13 351 
 161 342 353 
 292 322 371 
 345 371 322 
 346 323 370 
 151 370 323 
 260 374 261 
 324 261 374 
 341 290 5 
 324 374 325 
 149 190 264 
 237 264 190 
 56 62 236 
 42 315 162 
 76 78 92 
 363 356 364 
 123 364 356 
 301 355 194 
 4 1 361 
 258 361 1 
 308 353 274 
 354 207 229 
 169 229 207 
 317 337 318 
 319 318 338 
 183 61 357 
 187 173 283 
 232 348 352 
 328 276 352 
 159 115 157 
 306 157 115 
 111 362 100 
 324 247 365 
 255 218 124 
 184 105 373 
 118 373 105 
 91 349 369 
 311 369 349 
 35 150 26 
 146 166 147 
 186 147 125 
 265 370 84 
 266 88 371 
 111 113 362 
 311 350 369 
 80 100 362 
 91 369 92 
 71 124 218 
 94 215 113 
 151 323 253 
 292 336 322 
 188 347 372 
 260 366 374 
 360 365 247 
 308 51 181 
 241 291 330 
 224 330 291 
 299 54 300 
 292 371 88 
 151 84 370 
 135 338 318 
 135 318 337 
 191 304 325 
 60 325 304 
 354 362 113 
 191 374 366 
 258 273 361 
 131 133 220 
 118 281 373 
 340 321 334 
 278 367 331 
 160 157 89 
 11 194 355 
 97 321 98 
 340 98 321 
 344 296 359 
 268 372 347 
 308 274 349 
 311 349 274 
 339 373 281 
 23 140 263 
 354 113 215 
 144 313 329 
 131 359 296 
 184 373 140 
 191 325 374 
 306 89 157 
 56 329 313 
