TITLE      =  "2D FE Unstructured grid data" 
VARIABLES = "X", "Y", "U", "Dom" 
ZONE T="P1", F=FEPOINT, N= 928 E= 1728  ET=TRIANGLE 
 2.266543 4.837543 7.104139 1
 2.354569 4.780239 7.134859 1
 2.362011 4.940258 7.302321 1
 2.475768 4.831185 7.307003 1
 0.863356 3.491082 4.354451 1
 1.054199 3.509120 4.563334 1
 0.929897 3.592054 4.521967 1
 1.447017 5.148707 6.595771 1
 1.284539 5.081104 6.365681 1
 1.429996 5.052123 6.482161 1
 3.232097 6.046488 9.278665 1
 3.313665 6.154677 9.468426 1
 3.153175 6.102249 9.255508 1
 3.173663 6.202900 9.376649 1
 0.316807 3.985194 4.302011 1
 0.296819 4.080687 4.377516 1
 0.191424 3.991625 4.183055 1
 2.064463 5.800741 7.865280 1
 1.933685 5.698942 7.632696 1
 2.098961 5.691370 7.790404 1
 1.372061 5.212504 6.584611 1
 3.309231 5.982487 9.291797 1
 3.141533 5.941434 9.083049 1
 1.945885 5.835670 7.781626 1
 3.291459 5.875754 9.167293 1
 1.597471 5.537529 7.135055 1
 1.534143 5.440955 6.975150 1
 1.696365 5.417908 7.114332 1
 2.866452 6.026040 8.892571 1
 2.981438 5.978270 8.959795 1
 2.938483 6.124635 9.063204 1
 1.605105 5.323936 6.929094 1
 3.052152 6.061598 9.113831 1
 2.395749 6.336443 8.732278 1
 2.472568 6.425853 8.898510 1
 2.316118 6.431808 8.748011 1
 1.470755 6.498024 7.968847 1
 1.542161 6.396385 7.938617 1
 1.577821 6.558721 8.136617 1
 0.208946 4.153841 4.362795 1
 1.659293 6.444950 8.104315 1
 2.973837 5.854323 8.828239 1
 2.857029 5.780483 8.637589 1
 3.046258 5.754431 8.800768 1
 2.381827 6.524349 8.906263 1
 2.916168 5.671409 8.587652 1
 1.336604 3.931155 5.267779 1
 1.411892 4.023517 5.435433 1
 1.257768 4.007148 5.264934 1
 1.318588 4.106539 5.425150 1
 1.625208 4.773975 6.399223 1
 1.634479 4.644356 6.278874 1
 1.755826 4.672694 6.428561 1
 1.747181 4.815470 6.562693 1
 2.628444 4.929286 7.557784 1
 2.494393 5.003564 7.498014 1
 3.757726 4.591319 8.349063 1
 3.841367 4.732700 8.574089 1
 3.696275 4.709718 8.406017 1
 2.815677 6.244118 9.059885 1
 2.974875 6.266385 9.241341 1
 2.871979 6.348311 9.220375 1
 0.635702 5.069196 5.704917 1
 0.478251 5.133544 5.611808 1
 0.559542 4.962142 5.521698 1
 0.510559 7.108503 7.619085 1
 0.395163 7.165545 7.560728 1
 0.409375 7.016966 7.426362 1
 1.127223 5.153876 6.281134 1
 1.141149 5.001644 6.142826 1
 1.541535 4.288084 5.829649 1
 1.435274 4.418665 5.853972 1
 1.363267 4.263799 5.627096 1
 0.260440 3.850509 4.110955 1
 1.723917 5.896436 7.620421 1
 1.803463 6.010889 7.814426 1
 1.660720 6.017687 7.678474 1
 1.720692 6.157330 7.878094 1
 1.512895 5.982413 7.495370 1
 1.443898 6.091654 7.535615 1
 1.365815 5.952167 7.318038 1
 1.321293 6.079159 7.400507 1
 1.845991 4.317462 6.163485 1
 1.710832 4.271868 5.982728 1
 1.848897 4.146701 5.995626 1
 0.698432 5.772837 6.471296 1
 0.575890 5.792314 6.368227 1
 0.596135 5.650707 6.246863 1
 0.559112 6.615945 7.175083 1
 0.663739 6.708256 7.372023 1
 0.514937 6.747599 7.262559 1
 1.372741 5.314714 6.687497 1
 1.516472 5.222009 6.738527 1
 1.473827 5.352179 6.826054 1
 1.678203 3.965249 5.643471 1
 1.713768 3.849500 5.563286 1
 1.844278 3.966350 5.810650 1
 4.243496 4.933706 9.177226 1
 4.234445 4.810615 9.045077 1
 4.356071 4.907642 9.263724 1
 0.869467 5.131529 6.001022 1
 0.769390 5.051095 5.820504 1
 0.900624 4.981236 5.881885 1
 2.615458 6.362182 8.977724 1
 2.774981 6.409706 9.184777 1
 2.621361 6.497158 9.118609 1
 3.458855 4.122495 7.581354 1
 3.606796 4.177765 7.784566 1
 3.483129 4.255417 7.738559 1
 3.598774 4.337320 7.936107 1
 1.046198 4.122622 5.168841 1
 1.052132 4.303879 5.356035 1
 0.954772 4.204939 5.159734 1
 2.848079 5.061532 7.909668 1
 2.716476 5.031258 7.747792 1
 2.764699 4.932348 7.697101 1
 2.881194 4.935314 7.816563 1
 0.000000 3.611111 3.611111 1
 0.000000 3.472222 3.472222 1
 0.145812 3.516792 3.662607 1
 2.088911 6.516935 8.605930 1
 2.178055 6.622899 8.801038 1
 2.038125 6.684228 8.722436 1
 1.157460 4.226938 5.384421 1
 4.390341 4.809024 9.199378 1
 2.461796 4.161706 6.623528 1
 2.524874 4.329898 6.854802 1
 2.368239 4.274683 6.642953 1
 3.894337 4.620393 8.514748 1
 0.107255 3.641623 3.748880 1
 2.107111 6.010770 8.117958 1
 2.195521 6.087101 8.282698 1
 2.088281 6.169971 8.258328 1
 4.639359 4.733263 9.372622 1
 4.777213 4.665328 9.442537 1
 4.741090 4.800401 9.541492 1
 0.737325 5.669270 6.406622 1
 3.406950 5.209372 8.616380 1
 3.306184 5.104462 8.410703 1
 3.421729 5.051481 8.473261 1
 2.005201 5.571858 7.577127 1
 1.972178 4.097893 6.070093 1
 0.344523 5.224209 5.568744 1
 0.196422 5.156919 5.353344 1
 0.341365 5.078186 5.419563 1
 0.236381 4.995296 5.231684 1
 0.987016 3.751022 4.738058 1
 1.114635 3.829833 4.944489 1
 0.950544 3.894858 4.845421 1
 0.434300 4.992430 5.426742 1
 1.948714 4.534981 6.483733 1
 1.952836 4.392175 6.345051 1
 2.077769 4.478052 6.555859 1
 3.213394 5.191581 8.405034 1
 3.298322 5.287309 8.585692 1
 1.011520 5.057606 6.069157 1
 0.540023 7.005441 7.545489 1
 2.677975 4.403424 7.081430 1
 2.632258 4.578031 7.210329 1
 2.560628 4.436356 6.997017 1
 1.287651 4.420591 5.708272 1
 0.304373 6.188498 6.492880 1
 0.458075 6.124873 6.582965 1
 0.439970 6.285912 6.725904 1
 3.965637 4.859202 8.824860 1
 4.098414 4.774844 8.873278 1
 4.116724 4.919291 9.036039 1
 1.998426 6.103631 8.102139 1
 0.725570 4.565895 5.291486 1
 0.832983 4.618250 5.451255 1
 0.676561 4.652657 5.329238 1
 0.000000 6.805555 6.805555 1
 0.124206 6.674959 6.799170 1
 0.168758 6.780949 6.949715 1
 0.782922 4.741789 5.524732 1
 4.666161 4.606328 9.272483 1
 3.629506 5.674319 9.303894 1
 3.675593 5.526574 9.202227 1
 3.741936 5.683527 9.425525 1
 2.748864 4.504391 7.253292 1
 0.972894 5.614025 6.586954 1
 0.889425 5.497691 6.387144 1
 1.003072 5.424653 6.427753 1
 1.696916 6.314753 8.011746 1
 1.592284 6.279613 7.871968 1
 1.954613 6.582535 8.537230 1
 3.131414 6.406967 9.538471 1
 2.996739 6.405838 9.402661 1
 3.095015 6.292739 9.387836 1
 2.218435 4.216924 6.435387 1
 2.195001 4.360684 6.555717 1
 2.319805 4.424444 6.744284 1
 1.091373 3.977587 5.068981 1
 0.402159 6.651262 7.053437 1
 2.288267 3.928280 6.216566 1
 2.194062 4.086891 6.280977 1
 2.123543 3.972538 6.096101 1
 2.162099 4.878536 7.040689 1
 2.217421 4.707479 6.924946 1
 3.447616 5.752425 9.200112 1
 3.519192 5.612889 9.132141 1
 3.560547 5.764571 9.325182 1
 3.203882 5.822182 9.026142 1
 1.554171 5.074500 6.628716 1
 1.484426 4.911976 6.396440 1
 0.568905 4.559208 5.128129 1
 0.682309 4.460582 5.142911 1
 1.708725 4.146117 5.854868 1
 2.076948 4.795655 6.872649 1
 2.681637 4.256405 6.938070 1
 3.001331 5.595352 8.596754 1
 3.073294 5.462520 8.535892 1
 3.104973 5.640267 8.745314 1
 3.036210 5.285058 8.321337 1
 3.164217 5.324009 8.488296 1
 0.343548 4.903107 5.246665 1
 2.639488 5.494450 8.134007 1
 2.767023 5.534519 8.301617 1
 2.638286 5.646004 8.284365 1
 2.791103 5.659033 8.450212 1
 2.328976 4.094757 6.423756 1
 3.285072 4.974949 8.260068 1
 1.590164 6.121782 7.712013 1
 0.717624 3.718441 4.436081 1
 0.684755 3.851752 4.536521 1
 0.575425 3.706501 4.281941 1
 0.543499 3.861286 4.404799 1
 2.582572 4.189142 6.771739 1
 0.634513 4.864355 5.498883 1
 0.533296 4.801731 5.335040 1
 3.423122 6.009644 9.432844 1
 1.108239 5.522227 6.630504 1
 1.025232 4.906744 5.932007 1
 1.173181 4.840536 6.013745 1
 2.740520 6.528897 9.269514 1
 3.420814 4.912316 8.333172 1
 3.522639 5.143044 8.665732 1
 1.373677 4.553658 5.927367 1
 0.453549 4.888576 5.342140 1
 0.849315 6.312347 7.161702 1
 0.956951 6.196434 7.153425 1
 0.972829 6.363189 7.336060 1
 0.607504 6.824253 7.431781 1
 3.803937 5.090874 8.894848 1
 3.644509 5.074558 8.719110 1
 3.738236 4.948034 8.686303 1
 0.247466 7.171700 7.419176 1
 0.311634 7.287780 7.599427 1
 0.190436 7.302215 7.492663 1
 0.117865 3.862267 3.980137 1
 3.672231 4.470662 8.142910 1
 3.522887 4.489528 8.012438 1
 3.158106 4.022573 7.180686 1
 3.266143 3.958967 7.225114 1
 3.291701 4.098896 7.390607 1
 0.576647 4.440132 5.016798 1
 0.439510 4.421194 4.860718 1
 0.420596 4.557470 4.978078 1
 1.264026 5.770383 7.034456 1
 1.328080 5.670756 6.998884 1
 1.360249 5.814812 7.175112 1
 0.124253 7.204134 7.328395 1
 1.130480 3.678314 4.808812 1
 2.883681 5.235128 8.118876 1
 2.739348 5.145971 7.885384 1
 2.747687 5.279744 8.027503 1
 2.054163 4.363466 6.417663 1
 3.669930 4.054786 7.724715 1
 3.553286 4.052860 7.606149 1
 3.663119 3.911580 7.574695 1
 0.833166 6.086993 6.920192 1
 0.965494 6.052625 7.018158 1
 1.098112 6.129204 7.227360 1
 0.210583 5.397940 5.608526 1
 0.354821 5.390138 5.744973 1
 0.249973 5.502886 5.752866 1
 2.211415 4.472812 6.684262 1
 0.802402 3.915571 4.717990 1
 0.782489 4.064852 4.847359 1
 0.647741 3.997498 4.645255 1
 3.754881 5.387010 9.141941 1
 3.830001 5.262227 9.092270 1
 3.897923 5.397285 9.295248 1
 3.989424 5.286408 9.275873 1
 2.438004 4.007002 6.445024 1
 2.896825 4.090075 6.986918 1
 2.802897 4.053679 6.856590 1
 2.905543 3.942552 6.848104 1
 1.246724 4.592386 5.839142 1
 3.989231 4.708849 8.698101 1
 2.559604 4.702583 7.262232 1
 2.620094 4.801671 7.421820 1
 4.011201 4.580757 8.591975 1
 2.369568 5.111186 7.480813 1
 2.405827 5.246504 7.652391 1
 2.282167 5.236704 7.518932 1
 1.981885 4.254064 6.235981 1
 3.189224 4.781227 7.970493 1
 3.283570 4.849749 8.133361 1
 3.133970 4.921449 8.055469 1
 0.555792 6.480118 7.035934 1
 0.661663 6.433148 7.094842 1
 0.692328 6.567451 7.259811 1
 2.723489 4.742270 7.465807 1
 0.404852 3.911410 4.316271 1
 2.249674 5.133719 7.383451 1
 2.958092 5.380297 8.338462 1
 2.482970 5.945004 8.428055 1
 2.594559 5.844851 8.439487 1
 2.656853 5.952880 8.609809 1
 0.596528 6.329490 6.926046 1
 0.575201 6.206668 6.781896 1
 3.222589 6.303521 9.526197 1
 4.097756 4.656532 8.754300 1
 0.682058 4.177941 4.860016 1
 0.552354 4.113791 4.666162 1
 2.499365 5.572994 8.072431 1
 2.526701 5.421016 7.947788 1
 1.189196 5.700500 6.889740 1
 3.049341 4.632110 7.681491 1
 2.900057 4.632640 7.532737 1
 2.965014 4.544440 7.509490 1
 2.946177 4.744067 7.690286 1
 1.264962 3.777778 5.042758 1
 0.648033 3.496348 4.144392 1
 0.531076 3.469311 4.000396 1
 0.664800 3.365109 4.029919 1
 2.521891 6.696742 9.218723 1
 2.417243 6.654553 9.071886 1
 2.566158 6.600378 9.166632 1
 0.798703 4.935954 5.734673 1
 1.819209 5.788214 7.607490 1
 2.477557 6.542108 9.019756 1
 3.760977 4.141288 7.902267 1
 3.865321 4.286638 8.151971 1
 3.730860 4.287013 8.017882 1
 2.266217 6.002661 8.268957 1
 2.244823 5.896971 8.141870 1
 2.139534 5.880462 8.020073 1
 3.416707 5.654121 9.070897 1
 3.519774 5.432137 8.951970 1
 2.056813 4.649498 6.706347 1
 3.510444 3.945162 7.455607 1
 0.616793 5.524652 6.141469 1
 0.753121 5.474871 6.228014 1
 0.704196 5.575406 6.279625 1
 0.101495 4.079753 4.181252 1
 1.783377 6.277089 8.060540 1
 4.384297 4.111179 8.495461 1
 4.321894 4.212945 8.534836 1
 4.274329 4.054249 8.328573 1
 1.153041 4.501813 5.654882 1
 1.165372 4.363902 5.529299 1
 0.239582 5.637921 5.877511 1
 0.279358 5.768495 6.047864 1
 0.178162 5.768868 5.947035 1
 1.249943 5.883609 7.133600 1
 0.356925 5.562954 5.919891 1
 0.360935 5.703599 6.064547 1
 2.573590 6.040870 8.614541 1
 3.306064 4.596165 7.902260 1
 3.447032 4.666956 8.114017 1
 3.290806 4.717952 8.008794 1
 3.381533 4.790601 8.172171 1
 3.204232 3.703293 6.907515 1
 3.226218 3.840267 7.066483 1
 3.088363 3.763826 6.852184 1
 0.323862 6.067037 6.390915 1
 2.505281 5.722375 8.227733 1
 2.360957 5.697104 8.058137 1
 3.890006 4.160296 8.050303 1
 4.208792 4.172944 8.381736 1
 1.557101 4.441323 5.998459 1
 3.482398 4.827260 8.309698 1
 0.000000 6.666667 6.666667 1
 1.126392 6.947610 8.074049 1
 0.987395 6.885596 7.873037 1
 1.114545 6.819599 7.934193 1
 1.015840 6.738435 7.754319 1
 2.614580 5.068915 7.683556 1
 2.373101 5.553058 7.926234 1
 0.110544 5.656777 5.767325 1
 0.283384 7.047626 7.331023 1
 0.404601 3.755174 4.159784 1
 0.589610 5.172690 5.762315 1
 0.455974 3.598279 4.054261 1
 0.303318 3.536052 3.839375 1
 0.405477 3.463461 3.868947 1
 1.305190 4.892964 6.198188 1
 1.246485 4.971503 6.218019 1
 3.565191 4.752255 8.317474 1
 3.405697 4.008058 7.413761 1
 0.298179 4.346334 4.644522 1
 0.163075 4.437894 4.600976 1
 0.155146 4.289350 4.444503 1
 0.751689 6.471792 7.223517 1
 0.465655 6.555604 7.021282 1
 2.196571 6.194947 8.391602 1
 2.346585 6.143816 8.490482 1
 2.282090 6.289904 8.572076 1
 0.886363 6.750875 7.637281 1
 2.958561 5.491240 8.449879 1
 0.938187 4.303159 5.241370 1
 0.983424 4.420954 5.404401 1
 3.652773 5.830866 9.483703 1
 3.510746 5.861794 9.372614 1
 1.649491 5.183521 6.833063 1
 1.051319 6.259661 7.311027 1
 3.387095 5.854040 9.241213 1
 0.340842 3.651117 3.991967 1
 2.862174 6.578849 9.441118 1
 2.968595 6.656877 9.625565 1
 2.851676 6.706321 9.558089 1
 3.158952 4.149160 7.308126 1
 3.355225 4.213881 7.569119 1
 1.073092 5.746907 6.820039 1
 0.953502 5.786160 6.739698 1
 1.997262 3.961263 5.958544 1
 1.106335 4.660254 5.766614 1
 1.050924 4.792417 5.843369 1
 0.961264 4.723523 5.684813 1
 0.512555 3.990443 4.503015 1
 1.210548 6.020026 7.230621 1
 2.215323 5.675426 7.890826 1
 2.220497 5.793075 8.013648 1
 0.967973 4.616813 5.584812 1
 0.371069 6.795438 7.166526 1
 0.890913 4.840916 5.731852 1
 3.182012 5.557523 8.739608 1
 2.170873 4.567527 6.738438 1
 0.345145 4.655893 5.001047 1
 0.317155 4.493004 4.810168 1
 0.224829 4.579339 4.804176 1
 1.456560 4.158369 5.614955 1
 1.666563 4.399127 6.065725 1
 3.485222 4.369045 7.854286 1
 2.334530 5.834524 8.169134 1
 2.293629 4.533353 6.827021 1
 2.364146 4.641335 7.005525 1
 1.070193 6.356997 7.427238 1
 1.158510 6.252482 7.411042 1
 1.198241 6.407594 7.605892 1
 1.288719 6.310036 7.598814 1
 0.732483 6.352259 7.084774 1
 0.721417 6.205487 6.926932 1
 0.960186 5.918945 6.879169 1
 1.060478 5.867939 6.928460 1
 1.075357 5.997949 7.073350 1
 0.460374 5.629442 6.089830 1
 1.511669 4.565185 6.076892 1
 1.487731 4.716579 6.204347 1
 2.146028 5.581932 7.728034 1
 2.940133 4.188791 7.128942 1
 2.794811 4.175054 6.969885 1
 2.859029 4.264322 7.123377 1
 1.620126 4.919281 6.539450 1
 1.745081 4.939768 6.684894 1
 4.228453 5.249140 9.477623 1
 4.102524 5.218718 9.321271 1
 4.223283 5.113678 9.336983 1
 4.090350 5.075854 9.166234 1
 3.313319 3.773828 7.087141 1
 0.249671 5.295481 5.545161 1
 3.334796 3.669358 7.004144 1
 3.818583 5.480961 9.299597 1
 3.130578 3.901307 7.031887 1
 1.592145 4.171113 5.763285 1
 1.690180 5.050747 6.740976 1
 1.852256 4.457335 6.309628 1
 1.371875 6.417456 7.789394 1
 1.438828 6.301654 7.740548 1
 0.623057 5.404192 6.027267 1
 4.531424 4.616923 9.148344 1
 4.485788 4.489397 8.975184 1
 4.613379 4.491912 9.105285 1
 1.884973 6.114752 7.999801 1
 3.189896 5.445690 8.635653 1
 3.613718 4.608540 8.222277 1
 4.293717 4.469721 8.763437 1
 4.224833 4.577634 8.802473 1
 4.176639 4.432660 8.609299 1
 0.270356 6.722905 6.993270 1
 0.241087 6.594317 6.835412 1
 0.838054 3.780471 4.618544 1
 0.000000 5.555555 5.555555 1
 0.000000 5.416667 5.416667 1
 0.132429 5.509089 5.641523 1
 4.009738 4.968693 8.978457 1
 2.540742 4.074995 6.615759 1
 1.246031 5.221209 6.467278 1
 0.840212 6.200315 7.040561 1
 3.616906 5.228161 8.845116 1
 3.632662 5.360464 8.993181 1
 3.724198 5.187801 8.912042 1
 1.225959 3.886014 5.111992 1
 0.000000 7.361111 7.361111 1
 0.081500 7.298603 7.380109 1
 0.115371 7.430360 7.545739 1
 0.106432 5.066491 5.172927 1
 0.759355 5.356022 6.115398 1
 1.914454 5.282464 7.196978 1
 2.052919 5.351081 7.404060 1
 1.933411 5.425395 7.358868 1
 0.844892 5.723430 6.568350 1
 4.113810 4.543948 8.657771 1
 0.362887 6.551648 6.914552 1
 0.000000 6.250000 6.250000 1
 0.000000 6.111111 6.111111 1
 0.144028 6.180555 6.324586 1
 1.757389 4.056217 5.813630 1
 1.939620 5.144183 7.083854 1
 1.848137 5.192117 7.040310 1
 1.825933 5.051859 6.877843 1
 2.969521 4.300983 7.270531 1
 2.823711 4.393661 7.217402 1
 1.106314 5.636593 6.742950 1
 2.956564 4.427278 7.383870 1
 1.959572 5.977446 7.937094 1
 0.821548 5.858727 6.680305 1
 1.241030 6.163182 7.404268 1
 1.368997 6.188184 7.557240 1
 0.736492 3.530544 4.267049 1
 0.746491 3.433412 4.179915 1
 0.273826 3.722991 3.996821 1
 1.492842 5.722325 7.215222 1
 0.000000 7.500000 7.500000 1
 3.749798 4.799947 8.549768 1
 4.314122 4.746890 9.061022 1
 0.492459 5.721128 6.213607 1
 2.468989 4.628735 7.097762 1
 2.523161 4.529856 7.053055 1
 0.495417 5.508823 6.004254 1
 2.493084 6.794065 9.287236 1
 1.862262 6.226519 8.088852 1
 1.912050 6.310066 8.222197 1
 4.349597 5.130523 9.480143 1
 1.203689 5.589727 6.793460 1
 0.481959 6.387649 6.869631 1
 3.033436 3.865733 6.899172 1
 2.964751 3.791596 6.756347 1
 0.311214 6.299680 6.610907 1
 0.113225 6.883154 6.996379 1
 1.978818 6.434281 8.413177 1
 2.142704 5.215140 7.357904 1
 2.197273 5.369653 7.566993 1
 1.949055 4.990519 6.939622 1
 2.078709 4.956062 7.034821 1
 2.046958 5.102517 7.149528 1
 0.877540 4.413786 5.291352 1
 4.153842 4.086401 8.240237 1
 4.099603 4.201324 8.300931 1
 3.998106 4.081865 8.079967 1
 3.977496 4.237344 8.214838 1
 3.185332 5.716519 8.901935 1
 0.000000 5.972222 5.972222 1
 0.116808 5.897958 6.014769 1
 0.111832 6.061011 6.172849 1
 1.599322 5.826808 7.426190 1
 1.484004 5.872913 7.356974 1
 1.854272 5.900525 7.754866 1
 0.823822 5.596280 6.420133 1
 1.853078 6.394500 8.247658 1
 0.000000 7.083333 7.083333 1
 0.141202 7.079720 7.220930 1
 2.843946 5.346820 8.190840 1
 3.064560 6.175085 9.239731 1
 1.758602 5.662060 7.420729 1
 1.720629 5.535300 7.255988 1
 1.859047 5.557207 7.416317 1
 0.498943 5.377163 5.876118 1
 4.385042 4.553868 8.938916 1
 2.515239 6.158843 8.674163 1
 2.660096 6.213124 8.873306 1
 2.510188 6.287699 8.797972 1
 0.000000 7.222222 7.222222 1
 2.019053 5.225721 7.244831 1
 2.118942 4.284904 6.403880 1
 2.956478 6.808999 9.765576 1
 0.420228 6.023907 6.444149 1
 1.230318 4.716856 5.947206 1
 1.336670 4.690624 6.027328 1
 0.755263 5.973875 6.729163 1
 0.867131 5.978233 6.845397 1
 3.102245 5.190632 8.292943 1
 3.193439 5.063548 8.257041 1
 3.065319 4.494302 7.559650 1
 3.173604 4.555604 7.729240 1
 2.442650 4.721149 7.163846 1
 1.258429 3.661305 4.919751 1
 1.407226 3.692912 5.100155 1
 1.758916 5.154770 6.913737 1
 0.957793 6.520961 7.478799 1
 1.070850 6.471199 7.542095 1
 2.525452 5.281466 7.806986 1
 2.634807 5.354449 7.989328 1
 4.514215 4.754536 9.268759 1
 0.717251 6.064655 6.781932 1
 1.963672 4.855675 6.819393 1
 1.753081 6.410414 8.163571 1
 3.384558 3.882700 7.267257 1
 0.105653 5.389453 5.495110 1
 2.093771 4.187382 6.281182 1
 3.554677 4.894423 8.449130 1
 3.533933 5.005734 8.539709 1
 3.064626 6.488285 9.552999 1
 0.805133 4.493316 5.298473 1
 4.504116 4.885536 9.389663 1
 1.762708 6.517904 8.280689 1
 1.701525 6.607427 8.309026 1
 3.077426 5.065394 8.142878 1
 2.976465 4.996763 7.973283 1
 2.980428 4.866797 7.847275 1
 0.441826 5.283202 5.725041 1
 1.372863 5.437885 6.810795 1
 1.260954 5.351810 6.612804 1
 1.252662 4.198272 5.450957 1
 2.161426 5.086014 7.247494 1
 2.191758 4.977833 7.169648 1
 3.026547 4.078624 7.105184 1
 1.495888 6.199917 7.695874 1
 4.186042 5.012258 9.198322 1
 1.376183 4.959968 6.336188 1
 2.811126 6.830569 9.641799 1
 1.289464 4.793635 6.083133 1
 0.462606 5.832233 6.294853 1
 0.344942 5.846585 6.191540 1
 2.411268 6.239966 8.651319 1
 1.738686 4.527773 6.266496 1
 1.624204 4.521267 6.145505 1
 1.333971 6.646914 7.980947 1
 1.205009 6.635832 7.840889 1
 1.276242 6.520332 7.796634 1
 1.017475 3.636533 4.654028 1
 0.556224 5.274645 5.830884 1
 2.411756 5.449990 7.861816 1
 2.181320 6.395429 8.576833 1
 2.078305 6.379520 8.457907 1
 1.136453 5.394846 6.531334 1
 1.235183 5.467110 6.702332 1
 0.804398 6.970953 7.775388 1
 0.664117 6.992033 7.656181 1
 0.692460 6.894339 7.586830 1
 0.768840 6.814992 7.583866 1
 0.799684 6.671224 7.470944 1
 1.374240 3.826074 5.200336 1
 0.323504 6.922027 7.245542 1
 0.479855 6.892079 7.371951 1
 3.947360 5.059838 9.007230 1
 3.918432 5.171042 9.089509 1
 2.776603 4.618862 7.395508 1
 2.085275 4.074595 6.159894 1
 0.148263 3.745319 3.893586 1
 0.833898 4.203212 5.037132 1
 0.903448 4.091822 4.995291 1
 2.465141 6.063437 8.528662 1
 1.383168 6.525343 7.908576 1
 1.478751 6.592216 8.071033 1
 1.444627 6.706367 8.151061 1
 0.955230 5.303747 6.259003 1
 0.838786 5.261732 6.100542 1
 0.989375 5.185784 6.175189 1
 3.315720 5.737246 9.053039 1
 2.717383 6.311791 9.029261 1
 2.849089 4.819247 7.668384 1
 2.796990 6.126307 8.923377 1
 0.718892 5.204931 5.923843 1
 0.000000 4.444445 4.444445 1
 0.104653 4.543991 4.648650 1
 0.000000 5.694445 5.694445 1
 2.264250 4.935091 7.199393 1
 2.772497 6.631569 9.404160 1
 4.946111 4.241687 9.187779 1
 5.021509 4.346021 9.367516 1
 4.910671 4.378747 9.289398 1
 2.862094 4.510117 7.372247 1
 2.703638 6.067058 8.770778 1
 2.384405 6.022806 8.407290 1
 4.518124 4.381610 8.899724 1
 0.000000 3.750000 3.750000 1
 0.671950 5.881313 6.553289 1
 3.519101 3.834054 7.353150 1
 1.079771 4.434591 5.514389 1
 0.220288 5.997429 6.217724 1
 2.839083 4.711417 7.550545 1
 1.812431 5.456323 7.268815 1
 4.426431 4.309072 8.735497 1
 4.467340 4.192899 8.660232 1
 2.440646 4.411197 6.851879 1
 2.626641 5.202529 7.829234 1
 1.458034 5.570761 7.028847 1
 1.319570 5.547248 6.866862 1
 3.234506 4.368670 7.603198 1
 3.086691 4.360928 7.447643 1
 3.178654 4.262046 7.440717 1
 2.444946 5.828526 8.273544 1
 4.328856 4.652014 8.980874 1
 4.216404 4.703088 8.919503 1
 2.717163 4.844965 7.562181 1
 3.160703 4.445453 7.606185 1
 3.251264 5.385256 8.636584 1
 3.381427 5.371530 8.753016 1
 3.278691 5.499142 8.777905 1
 3.398920 4.532316 7.931263 1
 3.077367 4.789127 7.866539 1
 1.180613 4.103860 5.284498 1
 0.672693 3.611420 4.284125 1
 1.768899 4.404296 6.173229 1
 1.243384 4.290224 5.533635 1
 1.632814 5.711406 7.344279 1
 3.409681 5.515831 8.925578 1
 3.649375 4.834450 8.483854 1
 1.065321 5.294051 6.359404 1
 4.421032 4.682944 9.103986 1
 1.171018 5.288370 6.459426 1
 3.166606 4.677914 7.844557 1
 4.836103 4.272596 9.108681 1
 2.986669 5.144243 8.130970 1
 2.670653 4.094378 6.765051 1
 0.661354 5.299221 5.960593 1
 0.000000 4.305555 4.305555 1
 0.107323 4.186213 4.293542 1
 2.200501 5.493474 7.694049 1
 2.304739 5.460426 7.765232 1
 0.000000 3.888889 3.888889 1
 0.849335 6.431480 7.280854 1
 0.214986 3.612837 3.827829 1
 2.768164 4.308964 7.077153 1
 1.032397 4.539159 5.571581 1
 1.762124 5.277796 7.039975 1
 1.837731 5.358323 7.196114 1
 2.089673 5.470119 7.559860 1
 0.831033 6.551325 7.382395 1
 0.000000 5.000000 5.000000 1
 0.000000 4.861111 4.861111 1
 0.121741 4.909756 5.031502 1
 0.920518 4.531152 5.451693 1
 0.000000 4.722222 4.722222 1
 0.000000 4.583333 4.583333 1
 0.119825 4.672441 4.792269 1
 2.327956 5.344021 7.672041 1
 0.605128 6.093863 6.699015 1
 2.208205 6.496840 8.705133 1
 1.164663 6.531327 7.696041 1
 0.414330 4.068227 4.482568 1
 1.860227 6.496627 8.356934 1
 3.905245 3.963724 7.868962 1
 3.856679 4.061239 7.917920 1
 2.438673 5.348428 7.787168 1
 2.771141 5.990453 8.761675 1
 2.741679 5.866411 8.608172 1
 2.704592 5.756721 8.461391 1
 3.698494 4.373678 8.072186 1
 3.808077 4.401528 8.209622 1
 3.818960 4.513000 8.331979 1
 3.875270 4.965647 8.840943 1
 4.314944 5.007007 9.321968 1
 4.449084 4.999966 9.449064 1
 3.090335 6.712043 9.802474 1
 0.808822 3.631481 4.440320 1
 0.081024 4.368888 4.449919 1
 0.138369 5.285372 5.423747 1
 1.845996 4.885234 6.731280 1
 0.862778 6.878037 7.740854 1
 2.974607 6.528362 9.503058 1
 2.506077 5.152360 7.658496 1
 0.352246 6.389323 6.741585 1
 3.296501 4.470175 7.766700 1
 0.000000 5.138889 5.138889 1
 0.085142 5.194705 5.279850 1
 4.620383 4.846562 9.466949 1
 0.000000 4.166667 4.166667 1
 0.114363 6.303110 6.417477 1
 2.870167 6.466660 9.336905 1
 0.215323 6.379928 6.595260 1
 0.286639 6.485198 6.771851 1
 0.145565 6.498655 6.644227 1
 0.000000 6.527778 6.527778 1
 0.101550 6.405153 6.506710 1
 0.201777 6.955204 7.156986 1
 0.241448 6.843279 7.084734 1
 3.510435 5.292639 8.803128 1
 4.633486 4.354214 8.987692 1
 1.494057 3.828117 5.322195 1
 3.338020 5.587583 8.925677 1
 1.147493 5.921739 7.069277 1
 3.624146 4.951439 8.575625 1
 1.866666 4.740505 6.607216 1
 4.042265 4.458383 8.500659 1
 3.921630 4.489553 8.411193 1
 3.952791 4.375410 8.328215 1
 1.598852 5.928372 7.527286 1
 1.519705 4.078920 5.598648 1
 1.541506 3.965039 5.506570 1
 4.522327 3.976162 8.498477 1
 4.491944 4.086090 8.578027 1
 4.394097 4.005012 8.399097 1
 0.000000 6.388889 6.388889 1
 4.097208 3.997294 8.094494 1
 3.770090 3.992099 7.762189 1
 3.050842 3.962158 7.013008 1
 2.274977 5.033824 7.308855 1
 0.569405 4.688503 5.257921 1
 0.657364 4.762203 5.419580 1
 1.424073 4.634500 6.058610 1
 1.708726 5.785487 7.494277 1
 1.401960 4.827195 6.229191 1
 0.220797 6.099459 6.320269 1
 2.359648 5.921749 8.281477 1
 3.062189 4.222247 7.284455 1
 2.021545 6.303704 8.325330 1
 0.217860 6.270355 6.488225 1
 0.646802 4.323534 4.970356 1
 0.770799 4.381408 5.152227 1
 0.571542 3.574226 4.145778 1
 0.519351 6.007927 6.527298 1
 1.226046 6.755610 7.981709 1
 1.364042 6.804653 8.168761 1
 0.630688 7.118028 7.748742 1
 4.021440 5.155866 9.177339 1
 0.253715 4.248518 4.502240 1
 1.071071 6.610753 7.681875 1
 1.128930 6.714970 7.843951 1
 3.713630 5.288313 9.001987 1
 0.000000 5.277778 5.277778 1
 3.834062 4.861106 8.695191 1
 2.676126 6.621308 9.297526 1
 2.618056 6.741405 9.359552 1
 4.844534 4.120267 8.964778 1
 2.266949 5.578924 7.845949 1
 4.067450 4.328677 8.396139 1
 0.532266 7.220194 7.752481 1
 1.431660 3.914780 5.346460 1
 0.457483 4.687528 5.145023 1
 2.043949 5.901158 7.945182 1
 4.746282 4.023415 8.769684 1
 4.695701 4.120321 8.816003 1
 4.615785 4.052131 8.667895 1
 0.084081 6.578643 6.662725 1
 0.898227 3.693818 4.592062 1
 2.613141 6.119974 8.733202 1
 0.738157 4.849654 5.587827 1
 0.000000 4.027778 4.027778 1
 4.751874 4.209885 8.961741 1
 0.546788 5.903909 6.450717 1
 0.424369 5.926633 6.351016 1
 0.817296 3.350409 4.167717 1
 2.885120 5.567744 8.452937 1
 2.275002 6.571133 8.846221 1
 2.269654 6.706133 8.975878 1
 0.000000 5.833333 5.833333 1
 0.967439 4.006477 4.973937 1
 3.075473 6.590240 9.665801 1
 0.876311 3.995480 4.871811 1
 1.236438 6.883706 8.120198 1
 1.632625 4.071932 5.704582 1
 4.296638 4.351752 8.648396 1
 0.935367 6.645044 7.580453 1
 1.980952 4.739970 6.720963 1
 1.847712 4.590309 6.438060 1
 2.861234 5.904022 8.765333 1
 0.418895 6.471860 6.890774 1
 0.397058 4.783470 5.180539 1
 0.282452 4.796529 5.078993 1
 4.189581 4.291617 8.481203 1
 2.606400 5.743266 8.349745 1
 1.516116 4.814785 6.330939 1
 3.252874 4.200253 7.453140 1
 0.239060 4.693612 4.932679 1
 4.747875 4.543130 9.290997 1
 3.243331 5.637528 8.880929 1
 2.401201 4.527609 6.928848 1
 0.403314 4.311971 4.715296 1
 0.489652 4.263585 4.753252 1
 0.537349 4.347873 4.885239 1
 2.755666 5.402276 8.158015 1
 4.970822 4.493345 9.464157 1
 3.371267 4.340522 7.711806 1
 3.422117 4.438757 7.860897 1
 0.352589 4.204545 4.557145 1
 4.838349 4.462823 9.301155 1
 1.940171 4.651053 6.591267 1
 0.000000 6.944445 6.944445 1
 2.874966 5.450286 8.325324 1
 0.078739 4.791667 4.870412 1
 0.183726 4.791667 4.975398 1
 0.093535 6.987447 7.080982 1
 4.555874 4.268365 8.824234 1
 0.460118 4.163203 4.623333 1
 0.866498 5.386453 6.252977 1
 3.279840 4.277283 7.557139 1
 0.749340 4.281882 5.031243 1
 3.416794 3.773523 7.190312 1
 4.723359 4.428094 9.151441 1
 4.189739 3.956672 8.146401 1
 0.075243 5.763889 5.839136 1
 4.867213 4.558381 9.425587 1
 1.602232 3.849742 5.451989 1
 0.581823 4.228570 4.810406 1
 2.138969 6.287920 8.426968 1
 4.396034 4.419438 8.815475 1
 1.944062 6.806640 8.750784 1
 1.824299 6.803420 8.627802 1
 1.888285 6.699817 8.588185 1
 1.765391 6.700409 8.465878 1
 4.810153 4.375240 9.185382 1
 0.833953 4.316689 5.150667 1
 0.575413 6.917888 7.493328 1
 0.689004 4.960452 5.649475 1
 0.320373 5.961413 6.281799 1
 0.236595 4.883244 5.119845 1
 0.243322 5.873458 6.116791 1
 1.823849 6.603411 8.427340 1
 1.556930 5.627866 7.184852 1
 1.164038 5.815179 6.979263 1
 3.170548 6.517179 9.687819 1
 1.716988 6.784972 8.502037 1
 1.644509 6.699808 8.344392 1
 0.076489 3.962608 4.039098 1
 4.655750 4.229373 8.885108 1
 4.732930 4.312341 9.045259 1
 4.589895 4.154187 8.744068 1
 1.654394 5.613462 7.267916 1
 2.733116 6.724302 9.457518 1
 0.633783 5.986217 6.620022 1
 1.542193 6.684094 8.226357 1
 1.962033 6.206042 8.168152 1
 2.991431 3.677116 6.668540 1
 3.114750 3.650118 6.764860 1
 1 2 3 
 2 4 3 
 5 6 7 
 8 9 10 
 11 12 13 
 12 14 13 
 15 16 17 
 18 19 20 
 21 9 8 
 22 11 23 
 24 19 18 
 25 22 23 
 26 27 28 
 29 30 31 
 27 32 28 
 30 33 31 
 34 35 36 
 37 38 39 
 17 16 40 
 39 38 41 
 42 43 44 
 36 35 45 
 43 46 44 
 47 48 49 
 49 48 50 
 51 52 53 
 51 53 54 
 4 55 56 
 57 58 59 
 60 61 62 
 60 31 61 
 63 64 65 
 66 67 68 
 69 70 9 
 71 72 73 
 74 15 17 
 75 76 77 
 78 77 76 
 79 80 81 
 82 81 80 
 83 84 85 
 86 87 88 
 89 90 91 
 92 93 94 
 95 96 97 
 98 99 100 
 101 102 103 
 21 93 92 
 104 105 106 
 107 108 109 
 110 109 108 
 111 112 113 
 4 56 3 
 114 115 116 
 114 116 117 
 118 119 120 
 121 122 123 
 124 112 111 
 100 99 125 
 126 127 128 
 129 58 57 
 118 120 130 
 131 132 133 
 134 135 136 
 86 88 137 
 138 139 140 
 141 20 19 
 142 85 97 
 143 144 145 
 146 145 144 
 147 148 149 
 150 65 64 
 42 44 23 
 151 152 153 
 154 139 155 
 69 156 70 
 66 68 157 
 158 159 160 
 161 73 72 
 162 163 164 
 165 166 167 
 168 131 133 
 155 139 138 
 169 170 171 
 172 173 174 
 171 170 175 
 33 23 13 
 134 176 135 
 177 178 179 
 180 159 158 
 23 11 13 
 181 182 183 
 78 184 185 
 186 121 123 
 187 188 189 
 61 189 188 
 190 128 191 
 192 191 128 
 193 149 148 
 89 91 194 
 195 196 197 
 1 198 199 
 200 201 202 
 23 44 203 
 204 10 205 
 169 206 207 
 208 85 84 
 199 198 209 
 210 158 127 
 211 212 213 
 214 215 212 
 150 145 216 
 217 218 219 
 220 219 218 
 190 221 128 
 126 128 221 
 222 140 139 
 78 185 223 
 224 225 226 
 227 226 225 
 126 228 127 
 210 127 228 
 229 65 230 
 12 22 231 
 181 183 232 
 233 234 70 
 105 235 106 
 222 236 140 
 138 140 237 
 161 72 238 
 230 65 239 
 240 241 242 
 177 202 201 
 243 91 90 
 244 245 246 
 247 248 249 
 74 17 250 
 110 251 252 
 253 254 255 
 256 206 257 
 258 257 206 
 259 260 261 
 247 249 262 
 147 263 148 
 114 264 265 
 266 265 264 
 267 191 153 
 268 269 270 
 271 272 241 
 273 241 272 
 12 11 22 
 274 275 276 
 191 277 153 
 278 279 280 
 281 282 283 
 284 283 282 
 126 221 285 
 32 94 93 
 286 287 288 
 161 238 289 