TITLE      =  "2D FE Unstructured grid data" 
VARIABLES = "X", "Y", "U", "Dom" 
ZONE T="P1", F=FEPOINT, N= 276 E= 485  ET=TRIANGLE 
 2.317473 7.078120 9.395689 13
 2.417764 7.184912 9.602779 13
 2.250142 7.195615 9.445846 13
 2.313748 7.309247 9.623093 13
 2.457381 7.696479 10.153944 13
 2.330687 7.682017 10.012795 13
 2.433056 7.563674 9.996822 13
 2.534269 7.374473 9.908835 13
 2.443488 7.311311 9.754889 13
 2.579876 7.256678 9.836658 13
 2.282214 7.583952 9.866246 13
 2.203551 6.985586 9.189227 13
 2.338772 6.935942 9.274803 13
 2.464019 7.022563 9.486678 13
 2.305840 7.476904 9.782833 13
 2.107061 8.657786 10.764915 13
 2.156330 8.559928 10.716331 13
 2.215323 8.693197 10.908589 13
 1.786778 7.275660 9.062514 13
 1.840102 7.137749 8.977930 13
 1.913435 7.227174 9.140684 13
 2.988788 8.221578 11.210446 13
 2.848468 8.223381 11.071940 13
 2.938308 8.067600 11.005993 13
 3.081775 8.353309 11.435167 13
 2.937531 8.385432 11.323058 13
 2.601451 8.230957 10.832489 13
 2.705326 8.289047 10.994457 13
 2.563487 8.380516 10.944089 13
 3.099504 7.861408 10.961006 13
 3.087139 7.754130 10.841367 13
 3.246407 7.816896 11.063398 13
 3.455959 8.054653 11.510694 13
 3.603015 8.014289 11.617389 13
 3.522590 8.166489 11.689155 13
 2.826501 8.085840 10.912435 13
 2.418204 7.433827 9.852120 13
 2.583979 7.497101 10.081173 13
 2.759440 7.514537 10.274082 13
 2.666480 7.624243 10.290818 13
 1.674321 7.205916 8.880301 13
 1.508334 8.189949 9.698344 13
 1.644398 8.157336 9.801797 13
 1.585124 8.273692 9.858882 13
 1.707647 8.287313 9.995027 13
 3.167779 7.683233 10.851109 13
 2.824404 7.342330 10.166842 13
 2.669007 7.374741 10.043852 13
 2.908478 7.476202 10.384783 13
 2.685320 8.413293 11.098693 13
 2.952770 7.357646 10.310519 13
 3.067519 7.422348 10.489967 13
 2.684485 8.547401 11.231966 13
 2.796300 8.460410 11.256790 13
 2.845678 8.557736 11.403500 13
 2.255517 8.547160 10.802754 13
 2.210943 7.419106 9.630133 13
 3.030931 7.537596 10.568628 13
 3.045278 7.292064 10.337442 13
 3.091022 7.181091 10.272210 13
 3.155838 7.313945 10.469882 13
 3.637452 8.120075 11.757603 13
 2.799217 7.693826 10.493142 13
 2.923133 7.614957 10.538187 13
 1.590732 7.730081 9.320877 13
 1.716652 7.782197 9.498917 13
 1.610746 7.862753 9.473561 13
 1.696259 8.602985 10.299303 13
 1.803862 8.695800 10.499720 13
 1.657487 8.728475 10.386016 13
 2.808614 7.168708 9.977420 13
 2.942381 7.236932 10.179420 13
 1.904055 7.879086 9.783222 13
 1.837587 7.992599 9.830259 13
 1.796929 7.883687 9.680687 13
 1.494142 8.765318 10.259516 13
 1.645896 8.843415 10.489365 13
 2.774981 6.409706 9.184776 13
 2.740520 6.528897 9.269510 13
 2.621361 6.497158 9.118613 13
 1.961229 7.996693 9.958002 13
 1.767289 8.201658 9.969016 13
 2.466010 8.508545 10.974636 13
 2.438167 8.359035 10.797284 13
 3.031659 8.517939 11.549686 13
 1.687510 7.652841 9.340421 13
 3.131418 8.196046 11.327547 13
 2.318282 8.054093 10.372459 13
 2.336846 7.907362 10.244290 13
 2.449202 7.997257 10.446549 13
 1.965205 8.701877 10.667144 13
 1.870443 8.844454 10.714947 13
 1.728744 8.439555 10.168368 13
 1.596820 8.391994 9.988885 13
 2.307197 8.331261 10.638536 13
 2.310130 8.199123 10.509336 13
 2.416319 8.226562 10.642966 13
 3.063891 7.641549 10.705539 13
 1.561748 8.649764 10.211570 13
 2.198971 7.963866 10.162916 13
 2.944302 7.070577 10.014980 13
 2.884941 6.941597 9.826642 13
 3.017774 6.951748 9.969624 13
 2.956478 6.808999 9.765570 13
 2.207673 8.252357 10.460109 13
 2.991874 7.710558 10.702533 13
 1.596348 8.519858 10.116270 13
 1.630993 7.365955 8.997010 13
 2.521891 6.696742 9.218721 13
 2.417243 6.654553 9.071887 13
 2.566158 6.600378 9.166633 13
 1.544884 8.074590 9.619542 13
 2.477557 6.542108 9.019754 13
 3.511250 7.910295 11.421630 13
 2.793774 7.994339 10.788203 13
 2.686939 7.956045 10.643071 13
 2.792672 7.848142 10.640906 13
 3.162837 7.963872 11.126798 13
 2.688408 6.845854 9.534359 13
 2.552580 6.887485 9.440155 13
 2.618056 6.741405 9.359560 13
 2.740686 8.172968 10.913735 13
 2.344554 8.463660 10.808291 13
 1.908202 7.358087 9.266370 13
 2.862174 6.578849 9.441117 13
 2.968595 6.656877 9.625565 13
 2.851676 6.706321 9.558088 13
 2.929271 8.493922 11.423272 13
 2.978158 8.659540 11.637790 13
 3.282170 7.982706 11.264967 13
 2.035455 7.380548 9.416081 13
 2.150744 7.318586 9.469415 13
 2.112930 7.459446 9.572457 13
 2.586080 7.112348 9.698527 13
 2.626130 8.127058 10.753277 13
 2.891120 7.950875 10.842084 13
 2.079071 7.912491 9.991644 13
 2.120774 7.803924 9.924777 13
 2.261610 7.806186 10.067881 13
 2.006415 7.842937 9.849422 13
 3.018186 7.962210 10.980486 13
 3.026406 8.119363 11.145858 13
 1.390459 7.691524 9.082037 13
 1.501852 7.678027 9.179952 13
 1.500886 7.797293 9.298241 13
 2.177634 8.374730 10.552442 13
 3.163727 6.971000 10.134827 13
 3.118363 6.849500 9.967958 13
 3.277380 6.882189 10.159662 13
 2.020253 7.267929 9.288264 13
 2.363943 6.802744 9.166787 13
 2.245891 6.841384 9.087362 13
 3.109078 8.066141 11.175309 13
 2.437755 6.885254 9.323103 13
 1.894796 8.283788 10.178648 13
 1.796368 8.333261 10.129696 13
 2.574666 7.007318 9.582080 13
 2.126284 8.081773 10.208137 13
 2.057845 8.012397 10.070324 13
 2.556417 7.605742 10.162256 13
 2.440898 7.840679 10.281663 13
 2.551204 7.791159 10.342463 13
 2.592933 7.696841 10.289867 13
 2.651590 6.943803 9.595492 13
 2.794759 8.349617 11.144462 13
 3.081839 7.047856 10.129787 13
 2.493084 6.794065 9.287240 13
 3.209192 8.323812 11.533083 13
 3.142920 8.472559 11.615555 13
 3.384366 7.927693 11.312150 13
 3.338727 8.074183 11.412998 13
 1.451239 8.326179 9.777483 13
 1.398905 8.200853 9.599819 13
 1.751417 7.973350 9.724833 13
 2.660093 7.848749 10.508932 13
 2.213852 8.122400 10.336339 13
 2.084858 8.479953 10.564885 13
 2.011927 8.365358 10.377356 13
 2.078767 7.666364 9.745209 13
 2.034003 7.560336 9.594419 13
 2.176873 7.551620 9.728577 13
 1.860916 8.142054 10.003051 13
 2.010645 8.122132 10.132858 13
 1.497397 8.567036 10.064494 13
 2.076327 7.058541 9.134953 13
 2.054027 6.924795 8.978906 13
 2.190225 7.101747 9.292058 13
 2.578987 8.492351 11.071417 13
 2.055979 8.579137 10.635186 13
 2.811126 6.830569 9.641797 13
 2.559854 7.907807 10.467754 13
 2.580730 8.027303 10.608116 13
 2.019666 8.846539 10.866267 13
 3.263058 7.656786 10.919945 13
 2.508919 8.137167 10.646162 13
 2.074688 8.746455 10.821204 13
 1.463472 7.365602 8.829136 13
 1.532278 7.479693 9.012035 13
 1.878052 8.432953 10.311072 13
 1.824728 8.560706 10.385502 13
 1.973966 7.465500 9.439546 13
 1.747745 8.802259 10.550058 13
 2.359423 7.771815 10.131325 13
 2.772497 6.631569 9.404165 13
 1.675653 7.515348 9.191064 13
 1.761743 7.409687 9.171502 13
 1.793636 7.572269 9.365973 13
 1.862727 7.473275 9.336082 13
 2.209255 7.681920 9.891262 13
 2.269654 6.706133 8.975870 13
 2.503778 8.272970 10.776835 13
 3.764626 7.978360 11.743066 13
 3.713003 8.075606 11.788686 13
 2.106870 8.283138 10.390084 13
 3.090335 6.712043 9.802472 13
 1.976478 7.746914 9.723477 13
 1.396366 7.460019 8.856426 13
 2.709536 7.054564 9.764197 13
 2.821318 7.035058 9.856478 13
 2.228667 8.455847 10.684594 13
 2.911109 7.846158 10.757357 13
 1.946103 7.028942 8.975129 13
 2.686038 7.749208 10.435345 13
 2.723051 7.266156 9.989308 13
 3.087309 8.611466 11.698848 13
 3.505209 8.273164 11.778445 13
 3.625255 8.229438 11.854768 13
 1.887306 8.627846 10.515215 13
 1.761035 8.899155 10.660243 13
 2.142537 6.862159 9.004776 13
 2.974607 6.528362 9.503052 13
 2.015341 8.240054 10.255473 13
 1.451279 7.567094 9.018435 13
 2.684746 7.162374 9.847225 13
 2.870167 6.466660 9.336910 13
 3.823353 8.107009 11.930434 13
 3.182489 7.548820 10.731411 13
 1.943088 8.197810 10.140968 13
 1.499858 7.947772 9.447687 13
 1.955428 8.552999 10.508493 13
 1.977435 7.641033 9.618540 13
 3.279959 8.202665 11.482699 13
 3.221675 8.093870 11.315631 13
 3.219912 7.099728 10.319739 13
 3.356488 8.323774 11.680343 13
 1.426698 8.649664 10.076416 13
 2.676126 6.621308 9.297524 13
 1.974128 8.457271 10.431469 13
 2.698863 8.066895 10.765848 13
 2.110897 7.181079 9.292065 13
 1.996131 7.145063 9.141271 13
 2.400570 8.122841 10.523497 13
 1.575904 7.604143 9.180114 13
 1.642432 7.990613 9.633109 13
 3.408233 8.183514 11.591824 13
 3.075473 6.590240 9.665808 13
 2.158822 8.828609 10.987493 13
 1.750976 8.080727 9.831774 13
 2.761153 6.941907 9.703159 13
 3.277499 6.994697 10.272295 13
 1.429399 8.087277 9.516736 13
 3.733426 8.174810 11.908313 13
 1.703635 7.898520 9.602227 13
 3.008007 7.820422 10.828528 13
 2.898241 7.744026 10.642363 13
 1.842852 7.773014 9.615936 13
 1.878363 7.667325 9.545762 13
 1.782536 7.690072 9.472679 13
 1.497119 8.467815 9.964993 13
 1.402143 8.440618 9.842837 13
 2.733116 6.724302 9.457514 13
 2.113444 8.183642 10.297167 13
 1.919563 7.564223 9.483866 13
 2.996739 6.405838 9.402666 13
 1.404965 8.536551 9.941568 13
 3.064626 6.488285 9.552996 13
 1 2 3 
 3 2 4 
 5 6 7 
 8 9 10 
 6 11 7 
 12 13 1 
 14 1 13 
 11 15 7 
 16 17 18 
 19 20 21 
 22 23 24 
 22 25 26 
 9 2 10 
 27 28 29 
 30 31 32 
 33 34 35 
 24 23 36 
 4 37 15 
 38 39 40 
 19 41 20 
 42 43 44 
 45 44 43 
 37 7 15 
 46 32 31 
 47 39 48 
 38 48 39 
 47 49 39 
 14 2 1 
 29 28 50 
 49 51 52 
 53 54 55 
 17 56 18 
 4 15 57 
 58 49 52 
 59 60 61 
 62 35 34 
 63 39 64 
 65 66 67 
 68 69 70 
 47 71 72 
 73 74 75 
 76 70 77 
 78 79 80 
 73 81 74 
 45 43 82 
 83 84 29 
 85 26 25 
 65 86 66 
 22 87 25 
 88 89 90 
 91 92 69 
 45 93 94 
 95 96 97 
 58 98 64 
 68 70 99 
 88 100 89 
 101 102 103 
 104 103 102 
 95 105 96 
 106 64 98 
 68 99 107 
 19 108 41 
 109 110 111 
 42 112 43 
 111 110 113 
 38 37 8 
 63 40 39 
 33 114 34 
 59 72 60 
 101 60 72 
 115 116 117 
 30 32 118 
 119 120 121 
 27 122 28 
 22 26 23 
 83 123 84 
 19 21 124 
 125 126 127 
 55 128 129 
 85 129 128 
 45 94 44 
 130 118 32 
 47 72 51 
 131 132 133 
 14 134 2 
 135 122 27 
 115 117 136 
 137 138 100 
 139 100 138 
 73 140 81 
 137 81 140 
 24 141 142 
 143 144 145 
 4 9 37 
 38 7 37 
 95 146 105 
 147 148 149 
 131 124 150 
 10 2 134 
 151 13 152 
 58 64 49 
 142 141 153 
 14 154 120 
 10 48 8 
 38 8 48 
 155 156 82 
 14 120 157 
 95 97 84 
 158 159 100 
 38 40 160 
 12 152 13 
 137 100 159 
 57 133 132 
 161 5 162 
 163 162 5 
 119 164 120 
 165 26 54 
 101 166 60 
 109 167 110 
 167 151 110 
 76 99 70 
 25 168 169 
 130 32 170 
 4 57 132 
 163 5 160 
 33 171 170 
 42 172 173 
 147 103 148 
 174 75 74 
 175 117 116 
 158 100 176 
 104 127 126 
 39 49 64 
 88 176 100 
 177 178 146 
 179 180 181 
 131 150 132 
 182 81 183 
 184 107 99 
 165 23 26 
 26 128 54 
 12 185 186 
 85 25 169 
 153 141 118 
 12 1 187 
 101 72 71 
 83 29 188 
 33 170 114 
 91 189 16 
 104 190 127 
 161 191 90 
 192 90 191 
 91 193 92 
 46 194 32 
 192 195 90 
 91 16 196 
 45 82 156 
 65 145 144 
 197 108 198 
 199 200 93 
 68 93 200 
 131 201 124 
 69 92 202 
 182 155 82 
 199 155 178 
 137 159 81 
 104 148 103 
 161 203 5 
 104 102 190 
 125 127 204 
 205 206 207 
 208 207 206 
 179 181 209 
 30 118 141 
 151 152 210 
 27 29 211 
 212 213 34 
 205 108 206 
 19 206 108 
 146 178 214 
 21 150 124 
 104 215 148 
 179 138 216 
 197 198 217 
 218 219 71 
 101 71 219 
 22 24 142 
 216 138 140 
 177 220 17 
 221 136 117 
 120 167 121 
 57 15 181 
 11 181 15 
 14 13 154 
 177 146 220 
 222 186 185 
 205 198 108 
 68 200 69 
 175 162 223 
 101 219 102 
 182 74 81 
 47 224 71 
 85 225 129 
 25 87 168 
 226 35 227 
 165 28 23 
 122 23 28 
 104 126 215 
 91 69 228 
 229 202 92 
 12 186 230 
 125 231 126 
 5 7 160 
 11 209 181 
 232 178 155 
 233 217 198 
 218 71 234 
 151 210 110 
 95 84 123 
 78 235 79 
 236 213 212 
 58 52 237 
 182 183 238 
 130 170 171 
 125 79 235 
 59 51 72 
 239 145 67 
 91 240 189 
 179 241 180 
 4 2 9 
 242 87 243 
 153 243 87 
 163 223 162 
 12 187 185 
 161 90 89 
 85 169 225 
 151 154 13 
 60 166 244 
 242 245 168 
 59 52 51 
 147 166 103 
 70 69 202 
 76 246 99 
 242 168 87 
 101 103 166 
 247 121 111 
 109 111 121 
 147 244 166 
 199 178 248 
 47 48 224 
 122 135 249 
 250 132 150 
 222 251 20 
 139 89 100 
 90 195 252 
 94 93 107 
 68 107 93 
 122 36 23 
 205 86 253 
 199 240 200 
 239 67 254 
 226 245 255 
 242 255 245 
 91 196 193 
 256 215 126 
 192 191 116 
 184 99 246 
 10 224 48 
 85 128 26 
 12 230 152 
 88 90 252 
 208 124 201 
 16 18 196 
 257 196 18 
 153 87 142 
 22 142 87 
 139 209 6 
 174 258 254 
 43 254 258 
 21 20 251 
 47 51 49 
 24 36 136 
 205 207 86 
 139 6 203 
 218 134 157 
 205 253 198 
 37 9 8 
 53 50 54 
 119 190 259 
 208 206 124 
 19 124 206 
 247 80 79 
 115 136 36 
 147 149 260 
 130 243 118 
 153 118 243 
 175 116 191 
 250 3 132 
 256 126 231 
 42 261 112 
 218 157 164 
 139 138 209 
 179 209 138 
 182 238 155 
 232 155 238 
 233 198 253 
 180 201 133 
 250 185 187 
 102 259 190 
 65 253 86 
 165 50 28 
 199 156 155 
 242 171 255 
 109 121 167 
 236 262 213 
 161 89 203 
 199 248 240 
 97 195 211 
 27 211 195 
 177 240 248 
 175 191 162 
 65 67 145 
 239 254 112 
 177 189 240 
 115 36 249 
 122 249 36 
 91 228 240 
 66 263 67 
 139 203 89 
 45 156 93 
 53 188 50 
 29 50 188 
 199 93 156 
 55 54 128 
 250 187 3 
 43 112 254 
 180 133 181 
 232 214 178 
 106 264 265 
 46 98 237 
 58 237 98 
 73 266 216 
 267 216 266 
 63 64 265 
 106 265 64 
 131 133 201 
 56 17 220 
 33 255 171 
 46 237 194 
 239 112 261 
 29 84 211 
 94 172 44 
 42 173 261 
 24 136 141 
 10 134 234 
 63 265 117 
 221 117 265 
 147 260 244 
 66 86 268 
 221 264 141 
 30 141 264 
 21 251 150 
 250 150 251 
 94 269 172 
 270 172 269 
 222 185 251 
 63 223 40 
 163 40 223 
 247 111 80 
 113 80 111 
 163 160 40 
 42 44 172 
 105 146 214 
 242 243 171 
 4 132 3 
 177 248 178 
 218 234 134 
 95 220 146 
 69 200 228 
 119 259 164 
 120 164 157 
 192 135 195 
 221 265 264 
 59 61 52 
 71 224 234 
 119 271 190 
 192 116 249 
 14 157 134 
 62 227 35 
 257 193 196 
 137 140 138 
 63 117 223 
 175 223 117 
 86 207 268 
 43 258 82 
 158 272 183 
 232 183 272 
 33 35 255 
 226 255 35 
 179 216 241 
 221 141 136 
 62 34 213 
 57 181 133 
 97 252 195 
 165 54 50 
 233 144 143 
 250 251 185 
 127 190 271 
 27 195 135 
 233 253 144 
 125 204 79 
 192 249 135 
 10 234 224 
 208 273 207 
 267 207 273 
 62 262 227 
 130 171 243 
 240 228 200 
 274 231 235 
 125 235 231 
 184 246 275 
 174 254 263 
 67 263 254 
 1 3 187 
 267 268 207 
 38 160 7 
 106 31 264 
 184 269 107 
 267 241 216 
 115 249 116 
 247 79 204 
 73 216 140 
 94 107 269 
 218 164 259 
 119 121 271 
 11 6 209 
 88 252 96 
 97 96 252 
 247 271 121 
 161 162 191 
 106 98 31 
 46 31 98 
 62 213 262 
 232 238 183 
 97 211 84 
 81 159 183 
 158 183 159 
 182 258 74 
 88 96 176 
 105 176 96 
 65 144 253 
 229 77 202 
 70 202 77 
 180 273 201 
 208 201 273 
 182 82 258 
 218 259 219 
 73 75 266 
 66 266 75 
 95 123 220 
 56 220 123 
 247 204 271 
 184 275 269 
 5 203 6 
 174 74 258 
 102 219 259 
 270 269 275 
 274 276 231 
 256 231 276 
 66 75 263 
 120 154 167 
 151 167 154 
 66 268 266 
 232 272 214 
 105 214 272 
 127 271 204 
 30 264 31 
 267 273 241 
 267 266 268 
 177 17 189 
 105 272 176 
 158 176 272 
 174 263 75 
 16 189 17 
 180 241 273 
