TITLE      =  "2D FE Unstructured grid data" 
VARIABLES = "X", "Y", "U", "Dom" 
ZONE T="P1", F=FEPOINT, N= 280 E= 500  ET=TRIANGLE 
 2.354569 4.780239 7.134861 24
 2.475768 4.831185 7.307008 24
 2.362011 4.940258 7.302324 24
 2.628444 4.929286 7.557786 24
 2.494393 5.003564 7.498017 24
 3.757726 4.591319 8.349069 24
 3.841367 4.732700 8.574091 24
 3.696275 4.709718 8.406013 24
 2.746652 3.966335 6.713003 24
 2.786584 3.867271 6.653867 24
 2.905543 3.942552 6.848107 24
 3.035245 2.932065 5.967282 24
 2.925088 2.947470 5.872531 24
 2.902174 2.798072 5.700224 24
 2.578471 3.951762 6.530251 24
 2.670653 4.094378 6.765054 24
 3.458855 4.122495 7.581358 24
 3.606796 4.177765 7.784567 24
 3.483129 4.255417 7.738559 24
 3.598774 4.337320 7.936109 24
 2.848079 5.061532 7.909670 24
 2.716476 5.031258 7.747795 24
 2.764699 4.932348 7.697104 24
 2.741634 3.009562 5.751173 24
 2.625647 3.073562 5.699188 24
 2.667062 2.893990 5.561029 24
 2.881194 4.935314 7.816563 24
 2.461796 4.161706 6.623530 24
 2.524874 4.329898 6.854806 24
 2.368239 4.274683 6.642953 24
 3.894337 4.620393 8.514749 24
 2.802897 4.053679 6.856597 24
 2.972581 3.152143 6.124701 24
 3.051320 3.237915 6.289211 24
 2.891829 3.294670 6.186478 24
 2.913982 3.504823 6.418792 24
 3.083112 3.536109 6.619208 24
 2.906021 3.610849 6.516863 24
 2.991431 3.677116 6.668542 24
 3.083775 2.826700 5.910445 24
 2.770490 3.248269 6.018742 24
 2.759542 3.399570 6.159101 24
 3.663119 3.911580 7.574693 24
 3.826711 3.869400 7.696098 24
 3.770090 3.992099 7.762187 24
 3.368343 3.309905 6.678225 24
 3.518182 3.389859 6.908015 24
 3.370279 3.428877 6.799137 24
 3.406950 5.209372 8.616376 24
 3.306184 5.104462 8.410703 24
 3.421729 5.051481 8.473262 24
 3.451608 3.228068 6.679651 24
 2.857611 3.172049 6.029638 24
 3.213394 5.191581 8.405037 24
 3.298322 5.287309 8.585696 24
 2.677975 4.403424 7.081432 24
 2.632258 4.578031 7.210331 24
 2.560628 4.436356 6.997022 24
 3.758397 3.758531 7.516916 24
 2.748864 4.504391 7.253292 24
 2.868498 3.815696 6.684199 24
 2.319805 4.424444 6.744288 24
 2.195001 4.360684 6.555720 24
 2.681637 4.256405 6.938072 24
 3.036210 5.285058 8.321336 24
 3.164217 5.324009 8.488287 24
 3.073294 5.462520 8.535891 24
 2.328976 4.094757 6.423760 24
 3.285072 4.974949 8.260067 24
 2.288267 3.928280 6.216567 24
 2.362937 3.794144 6.157093 24
 2.445605 3.866630 6.312248 24
 2.582572 4.189142 6.771741 24
 3.420814 4.912316 8.333173 24
 3.522639 5.143044 8.665729 24
 2.438004 4.007002 6.445027 24
 3.803937 5.090874 8.894847 24
 3.644509 5.074558 8.719110 24
 3.738236 4.948034 8.686300 24
 3.672231 4.470662 8.142912 24
 3.522887 4.489528 8.012436 24
 3.158106 4.022573 7.180692 24
 3.266143 3.958967 7.225116 24
 3.291701 4.098896 7.390607 24
 2.658534 3.302438 5.960959 24
 2.883681 5.235128 8.118880 24
 2.739348 5.145971 7.885385 24
 3.669930 4.054786 7.724719 24
 3.553286 4.052860 7.606148 24
 2.211415 4.472812 6.684265 24
 2.077769 4.478052 6.555869 24
 3.754881 5.387010 9.141948 24
 3.830001 5.262227 9.092273 24
 3.897923 5.397285 9.295254 24
 3.989424 5.286408 9.275874 24
 2.896825 4.090075 6.986917 24
 2.559604 4.702583 7.262235 24
 2.620094 4.801671 7.421817 24
 4.011201 4.580757 8.591975 24
 3.989231 4.708849 8.698097 24
 3.189224 4.781227 7.970490 24
 3.283570 4.849749 8.133362 24
 3.133970 4.921449 8.055472 24
 2.723489 4.742270 7.465807 24
 3.026370 3.348619 6.374970 24
 4.097756 4.656532 8.754300 24
 3.114750 3.650118 6.764861 24
 3.049341 4.632110 7.681487 24
 2.900057 4.632640 7.532739 24
 2.965014 4.544440 7.509490 24
 2.946177 4.744067 7.690289 24
 3.760977 4.141288 7.902267 24
 3.865321 4.286638 8.151963 24
 3.730860 4.287013 8.017886 24
 2.609238 3.517793 6.127029 24
 2.523007 3.648184 6.171194 24
 2.486100 3.502004 5.988102 24
 3.510444 3.945162 7.455606 24
 3.306064 4.596165 7.902261 24
 3.447032 4.666956 8.114019 24
 3.290806 4.717952 8.008797 24
 3.381533 4.790601 8.172172 24
 3.204232 3.703293 6.907518 24
 3.226218 3.840267 7.066484 24
 3.088363 3.763826 6.852187 24
 2.264641 3.792607 6.057260 24
 3.890006 4.160296 8.050306 24
 4.321894 4.212945 8.534832 24
 4.208792 4.172944 8.381739 24
 4.274329 4.054249 8.328575 24
 3.482398 4.827260 8.309690 24
 2.614580 5.068915 7.683558 24
 3.196591 2.947488 6.144049 24
 3.565191 4.752255 8.317475 24
 3.405697 4.008058 7.413763 24
 3.134465 3.448697 6.583146 24
 3.206612 3.570246 6.776845 24
 2.818202 2.930408 5.748586 24
 3.158952 4.149160 7.308126 24
 3.355225 4.213881 7.569118 24
 2.170873 4.567527 6.738442 24
 2.217421 4.707479 6.924947 24
 2.056813 4.649498 6.706349 24
 3.485222 4.369045 7.854286 24
 2.675906 3.858227 6.534145 24
 2.293629 4.533353 6.827022 24
 2.364146 4.641335 7.005527 24
 2.940133 4.188791 7.128947 24
 2.794811 4.175054 6.969886 24
 2.859029 4.264322 7.123376 24
 2.556775 3.810593 6.367379 24
 3.313319 3.773828 7.087143 24
 3.105634 3.030736 6.136344 24
 3.334796 3.669358 7.004142 24
 3.818583 5.480961 9.299603 24
 3.675593 5.526574 9.202228 24
 3.130578 3.901307 7.031885 24
 3.253668 3.446566 6.700214 24
 3.004563 3.449836 6.454382 24
 2.875806 3.413953 6.289746 24
 3.189896 5.445690 8.635653 24
 3.613718 4.608540 8.222281 24
 2.653286 3.746954 6.400247 24
 2.535318 3.365102 5.900410 24
 2.772818 3.517823 6.290637 24
 2.540742 4.074995 6.615759 24
 3.616906 5.228161 8.845114 24
 3.632662 5.360464 8.993180 24
 3.724198 5.187801 8.912045 24
 3.259622 3.307623 6.567225 24
 2.969521 4.300983 7.270531 24
 2.823711 4.393661 7.217407 24
 3.308843 3.184427 6.493245 24
 2.964751 3.791596 6.756352 24
 2.956564 4.427278 7.383874 24
 3.749798 4.799947 8.549775 24
 2.468989 4.628735 7.097771 24
 2.523161 4.529856 7.053058 24
 3.033436 3.865733 6.899174 24
 4.153842 4.086401 8.240244 24
 4.099603 4.201324 8.300925 24
 3.998106 4.081865 8.079962 24
 3.977496 4.237344 8.214844 24
 3.478721 3.539876 7.018577 24
 3.102245 5.190632 8.292938 24
 3.193439 5.063548 8.257044 24
 3.065319 4.494302 7.559648 24
 3.173604 4.555604 7.729239 24
 2.442650 4.721149 7.163849 24
 3.519774 5.432137 8.951974 24
 3.384558 3.882700 7.267257 24
 2.798532 3.650784 6.449316 24
 3.554677 4.894423 8.449128 24
 3.533933 5.005734 8.539704 24
 3.077426 5.065394 8.142883 24
 2.976465 4.996763 7.973286 24
 2.980428 4.866797 7.847273 24
 3.026547 4.078624 7.105186 24
 3.601517 3.546279 7.147778 24
 2.451574 3.748473 6.200054 24
 2.571431 3.205691 5.777106 24
 3.947360 5.059838 9.007227 24
 3.918432 5.171042 9.089511 24
 2.776603 4.618862 7.395507 24
 2.677222 3.628210 6.305433 24
 3.565874 3.649191 7.215052 24
 3.447007 3.652848 7.099842 24
 2.376864 3.565907 5.942770 24
 2.849089 4.819247 7.668390 24
 2.862094 4.510117 7.372249 24
 3.519101 3.834054 7.353151 24
 2.839083 4.711417 7.550546 24
 2.440646 4.411197 6.851877 24
 3.234506 4.368670 7.603197 24
 3.086691 4.360928 7.447645 24
 3.178654 4.262046 7.440717 24
 2.717163 4.844965 7.562182 24
 3.160703 4.445453 7.606183 24
 3.251264 5.385256 8.636585 24
 3.381427 5.371530 8.753022 24
 3.278691 5.499142 8.777902 24
 3.398920 4.532316 7.931264 24
 3.077367 4.789127 7.866539 24
 3.409681 5.515831 8.925579 24
 3.649375 4.834450 8.483854 24
 3.180450 3.215299 6.395725 24
 3.155227 3.341714 6.496922 24
 3.166606 4.677914 7.844556 24
 2.986669 5.144243 8.130974 24
 3.204031 3.102371 6.306376 24
 2.364691 3.674391 6.039086 24
 2.768164 4.308964 7.077156 24
 3.686920 3.654907 7.341810 24
 3.622774 3.758597 7.381361 24
 2.667090 3.420545 6.087626 24
 3.905245 3.963724 7.868963 24
 3.856679 4.061239 7.917915 24
 4.090350 5.075854 9.166229 24
 4.009738 4.968693 8.978456 24
 3.698494 4.373678 8.072191 24
 3.808077 4.401528 8.209620 24
 3.818960 4.513000 8.331985 24
 3.875270 4.965647 8.840950 24
 2.765425 3.758421 6.523852 24
 2.754933 3.122748 5.877661 24
 3.965637 4.859202 8.824860 24
 2.676207 3.190542 5.866731 24
 3.296501 4.470175 7.766701 24
 4.013083 3.953603 7.966675 24
 3.510435 5.292639 8.803130 24
 3.624146 4.951439 8.575624 24
 4.042265 4.458383 8.500659 24
 3.921630 4.489553 8.411194 24
 3.952791 4.375410 8.328209 24
 4.097208 3.997294 8.094498 24
 3.050842 3.962158 7.013010 24
 3.062189 4.222247 7.284459 24
 4.021440 5.155866 9.177344 24
 3.713630 5.288313 9.001993 24
 3.834062 4.861106 8.695199 24
 2.998208 3.041924 6.040109 24
 3.083927 3.128006 6.211910 24
 4.067450 4.328677 8.396141 24
 4.176639 4.432660 8.609306 24
 3.182012 5.557523 8.739608 24
 4.189581 4.291617 8.481195 24
 3.252874 4.200253 7.453141 24
 2.401201 4.527609 6.928850 24
 3.351694 3.548263 6.899942 24
 3.371267 4.340522 7.711811 24
 3.422117 4.438757 7.860897 24
 4.102524 5.218718 9.321274 24
 2.872922 3.056670 5.929569 24
 3.279840 4.277283 7.557142 24
 3.416794 3.773523 7.190312 24
 4.189739 3.956672 8.146401 24
 4.113810 4.543948 8.657765 24
 3.965398 3.853828 7.819211 24
 3.516917 3.732760 7.249665 24
 2.883663 3.715283 6.598948 24
 1 2 3 
 2 4 5 
 6 7 8 
 9 10 11 
 12 13 14 
 15 9 16 
 17 18 19 
 20 19 18 
 2 5 3 
 21 22 23 
 24 25 26 
 21 23 27 
 28 29 30 
 31 7 6 
 9 11 32 
 33 34 35 
 36 37 38 
 39 38 37 
 40 12 14 
 41 35 42 
 43 44 45 
 46 47 48 
 49 50 51 
 46 52 47 
 33 35 53 
 54 50 55 
 56 57 58 
 43 59 44 
 55 50 49 
 60 57 56 
 61 11 10 
 62 63 30 
 64 56 29 
 65 66 67 
 28 30 68 
 69 51 50 
 70 71 72 
 28 73 29 
 64 29 73 
 69 74 51 
 49 51 75 
 70 72 76 
 15 76 72 
 77 78 79 
 20 80 81 
 82 83 84 
 41 42 85 
 21 86 87 
 88 89 43 
 63 90 91 
 92 93 94 
 95 94 93 
 28 68 76 
 96 32 11 
 2 97 98 
 31 99 100 
 101 102 103 
 104 97 57 
 105 35 34 
 2 98 4 
 106 100 99 
 39 37 107 
 108 109 110 
 108 111 109 
 112 113 114 
 115 116 117 
 89 118 43 
 119 120 121 
 122 121 120 
 123 124 125 
 70 126 71 
 69 103 102 
 112 127 113 
 128 129 130 
 122 120 131 
 132 4 22 
 23 22 4 
 40 133 12 
 120 134 131 
 17 84 135 
 37 136 137 
 20 18 114 
 112 114 18 
 13 138 14 
 37 137 107 
 82 84 139 
 17 140 84 
 141 142 143 
 20 81 144 
 15 145 9 
 141 146 142 
 147 142 146 
 148 149 96 
 150 149 148 
 15 72 151 
 123 152 124 
 153 12 133 
 123 154 152 
 92 155 156 
 124 157 125 
 158 137 136 
 105 159 160 
 67 66 161 
 162 120 81 
 163 151 116 
 105 160 35 
 115 117 164 
 36 38 165 
 28 76 166 
 167 75 78 
 92 156 168 
 77 169 78 
 167 78 169 
 158 170 48 
 150 171 172 
 46 173 52 
 61 174 11 
 175 172 171 
 123 107 137 
 176 8 7 
 177 178 57 
 97 177 57 
 178 58 57 
 179 11 174 
 180 181 182 
 183 182 181 
 36 159 37 
 184 48 47 
 162 80 6 
 36 165 160 
 60 56 172 
 54 185 186 
 108 187 188 
 2 189 97 
 82 157 83 
 190 168 156 
 162 134 120 
 191 83 124 
 192 165 38 
 132 5 4 
 193 194 74 
 195 196 103 
 197 103 196 
 96 11 198 
 184 47 199 
 116 151 200 
 124 83 157 
 24 26 138 
 201 85 164 
 104 98 97 
 46 48 170 
 123 137 154 
 77 202 203 
 77 203 93 
 70 76 68 
 104 57 204 
 115 205 116 
 163 116 205 
 191 124 152 
 195 186 185 
 179 125 157 
 184 206 207 
 184 199 206 
 116 208 117 
 197 209 111 
 109 204 210 
 43 118 211 
 46 170 173 
 209 212 111 
 29 213 30 
 214 215 216 
 23 4 217 
 218 215 214 
 219 220 221 
 120 222 81 
 101 103 223 
 220 224 221 
 141 143 91 
 176 79 225 
 226 227 34 
 119 121 228 
 162 81 80 
 21 196 229 
 195 229 196 
 21 87 22 
 64 16 149 
 153 133 230 
 231 208 116 
 56 232 172 
 42 160 165 
 233 59 234 
 43 234 59 
 119 228 188 
 193 74 131 
 112 18 88 
 20 144 19 
 115 164 235 
 183 127 182 
 65 86 229 
 17 19 140 
 191 211 118 
 236 182 237 
 60 210 204 
 238 202 239 
 20 240 80 
 241 242 80 
 77 243 202 
 78 75 194 
 192 244 205 
 24 245 25 
 246 7 100 
 134 8 225 
 162 8 134 
 95 93 203 
 51 74 194 
 219 161 66 
 25 245 247 
 119 188 248 
 218 248 188 
 191 118 135 
 21 229 86 
 218 188 187 
 77 79 243 
 236 249 182 
 49 250 220 
 190 220 250 
 108 228 223 
 163 205 244 
 9 32 16 
 15 16 166 
 64 73 16 
 231 116 200 
 78 251 79 
 252 253 254 
 108 223 111 
 109 111 212 
 43 211 234 
 105 34 227 
 54 186 50 
 180 182 255 
 112 88 45 
 11 256 198 
 236 45 44 
 197 223 103 
 257 198 139 
 82 139 198 
 108 110 187 
 241 80 240 
 195 103 186 
 69 186 103 
 238 258 202 
 21 27 196 
 80 242 6 
 246 239 243 
 202 243 239 
 92 259 93 
 77 93 169 
 176 260 79 
 33 261 262 
 119 222 120 
 257 139 216 
 241 114 113 
 49 75 250 
 167 250 75 
 252 263 264 
 79 251 225 
 231 71 126 
 153 262 261 
 51 194 75 
 62 30 213 
 197 27 209 
 64 232 56 
 31 6 242 
 84 83 135 
 241 254 253 
 15 166 76 
 226 173 170 
 163 244 145 
 17 89 18 
 246 260 7 
 67 161 265 
 266 264 263 
 23 217 209 
 104 209 217 
 139 267 216 
 190 250 168 
 167 168 250 
 118 89 135 
 17 135 89 
 158 227 170 
 147 1 142 
 42 165 235 
 115 235 165 
 109 210 110 
 41 53 35 
 147 268 177 
 241 113 254 
 241 240 114 
 252 254 263 
 42 35 160 
 190 224 220 
 158 48 269 
 248 214 270 
 197 196 27 
 271 144 81 
 95 258 272 
 105 136 159 
 105 227 136 
 112 45 237 
 64 149 232 
 36 160 159 
 150 232 149 
 191 135 83 
 62 90 63 
 43 45 88 
 145 244 10 
 49 220 55 
 219 55 220 
 23 209 27 
 158 269 137 
 33 53 273 
 201 247 85 
 31 242 253 
 182 127 237 
 271 81 222 
 31 100 7 
 271 248 270 
 147 146 268 
 178 213 58 
 183 113 127 
 180 130 129 
 153 230 262 
 119 248 222 
 271 222 248 
 54 55 66 
 219 66 55 
 141 91 90 
 15 151 145 
 95 203 258 
 183 254 113 
 178 268 213 
 252 99 253 
 20 114 240 
 176 225 8 
 162 6 8 
 274 140 270 
 19 270 140 
 96 198 148 
 257 148 198 
 192 205 165 
 183 263 254 
 191 275 211 
 13 273 138 
 24 138 273 
 29 56 58 
 18 89 88 
 82 198 256 
 180 276 130 
 104 212 209 
 31 253 99 
 193 134 225 
 252 264 277 
 236 278 249 
 60 204 57 
 183 181 263 
 266 263 181 
 226 34 262 
 179 256 11 
 175 210 172 
 69 102 74 
 122 74 102 
 193 131 134 
 33 273 261 
 233 234 206 
 279 206 234 
 69 50 186 
 65 229 185 
 279 234 211 
 266 129 128 
 13 261 273 
 16 32 149 
 154 207 275 
 115 165 205 
 257 215 171 
 175 110 210 
 273 53 245 
 178 177 268 
 195 185 229 
 202 258 203 
 72 200 151 
 101 223 228 
 175 215 187 
 218 187 215 
 62 146 90 
 41 85 247 
 60 172 210 
 257 216 215 
 122 131 74 
 163 145 151 
 101 121 102 
 122 102 121 
 92 94 155 
 167 259 168 
 201 25 247 
 24 273 245 
 112 237 127 
 257 171 148 
 132 22 87 
 101 228 121 
 182 249 255 
 28 166 73 
 16 73 166 
 62 268 146 
 274 270 214 
 175 187 110 
 279 207 206 
 41 247 245 
 79 260 243 
 175 171 215 
 279 275 207 
 226 230 173 
 233 206 199 
 236 44 278 
 238 272 258 
 197 111 223 
 4 98 217 
 150 172 232 
 54 66 185 
 65 185 66 
 279 211 275 
 154 275 152 
 164 85 235 
 42 235 85 
 154 269 207 
 226 262 230 
 92 168 259 
 266 181 129 
 193 225 251 
 184 269 48 
 154 137 269 
 192 280 244 
 61 244 280 
 218 214 248 
 226 170 227 
 180 129 181 
 33 262 34 
 180 255 276 
 150 148 171 
 184 207 269 
 96 149 32 
 241 253 242 
 108 188 228 
 167 169 259 
 41 245 53 
 176 7 260 
 19 144 270 
 271 270 144 
 274 216 267 
 158 136 227 
 84 267 139 
 141 90 146 
 9 145 10 
 236 237 45 
 246 243 260 
 37 159 136 
 29 58 213 
 274 214 216 
 97 189 177 
 274 267 140 
 84 140 267 
 147 189 1 
 93 259 169 
 252 277 99 
 106 99 277 
 147 177 189 
 191 152 275 
 39 125 174 
 179 174 125 
 109 212 204 
 104 204 212 
 62 213 268 
 61 10 244 
 39 280 38 
 192 38 280 
 61 280 174 
 153 261 12 
 13 12 261 
 39 107 125 
 104 217 98 
 123 125 107 
 265 161 221 
 219 221 161 
 193 251 194 
 78 194 251 
 2 1 189 
 39 174 280 
 72 71 200 
 231 200 71 
 82 256 157 
 179 157 256 
