TITLE      =  "2D FE Unstructured grid data" 
VARIABLES = "X", "Y", "U", "Dom" 
ZONE T="P1", F=FEPOINT, N= 272 E= 477  ET=TRIANGLE 
 5.530718 0.481856 6.012559 28
 5.695170 0.474101 6.169255 28
 5.646289 0.628994 6.275262 28
 7.552849 0.916855 8.469690 28
 7.494326 1.025363 8.519670 28
 7.374181 0.926226 8.300388 28
 7.438138 0.557798 7.995924 28
 7.316076 0.631051 7.947114 28
 7.295281 0.481153 7.776424 28
 7.486001 0.809553 8.295542 28
 6.963366 1.048810 8.012163 28
 6.884698 0.923605 7.808287 28
 7.042629 0.903632 7.946243 28
 7.587032 1.102500 8.689510 28
 7.731541 1.104297 8.835816 28
 7.601613 1.214993 8.816590 28
 8.333333 0.000000 8.333333 28
 8.472222 0.000000 8.472222 28
 8.423933 0.166367 8.590298 28
 5.380229 0.370990 5.751208 28
 5.504284 0.305714 5.809990 28
 6.375421 0.217663 6.593076 28
 6.491006 0.285487 6.776485 28
 6.309723 0.352951 6.662663 28
 6.456118 0.426628 6.882733 28
 8.194445 0.000000 8.194445 28
 8.260237 0.127251 8.387484 28
 8.090914 0.133506 8.224418 28
 6.668028 0.549795 7.217810 28
 6.552711 0.526996 7.079694 28
 6.668671 0.402044 7.070703 28
 6.805555 0.000000 6.805555 28
 6.780949 0.168758 6.949706 28
 6.669086 0.122512 6.791597 28
 6.232086 0.489105 6.721175 28
 6.130297 0.402729 6.533011 28
 6.175150 0.288281 6.463419 28
 8.611111 0.000000 8.611111 28
 8.713051 0.149972 8.863016 28
 8.541667 0.099357 8.641028 28
 7.033436 1.283168 8.316586 28
 7.084176 1.397750 8.481899 28
 6.919063 1.345560 8.264602 28
 5.614038 0.973464 6.587468 28
 5.434222 0.993871 6.428064 28
 5.499931 0.878386 6.378276 28
 7.471699 0.439762 7.911454 28
 7.393651 0.354021 7.747667 28
 8.387761 0.339635 8.727397 28
 8.240078 0.418746 8.658823 28
 8.276791 0.268489 8.545277 28
 7.660341 0.578731 8.239058 28
 7.567696 0.509109 8.076797 28
 7.710315 0.439928 8.150232 28
 7.136683 0.529082 7.665757 28
 7.205846 0.625018 7.830853 28
 8.569086 0.210360 8.779449 28
 8.508806 0.309166 8.817975 28
 7.003982 0.388354 7.392329 28
 7.133464 0.392585 7.526044 28
 7.012825 0.504763 7.517579 28
 7.949999 0.693922 8.643918 28
 8.057818 0.785259 8.843068 28
 7.934078 0.862031 8.796095 28
 6.555438 0.366973 6.922402 28
 7.588399 0.399238 7.987633 28
 5.523998 1.106661 6.630625 28
 5.616538 0.374448 5.990972 28
 8.101618 0.647294 8.748900 28
 6.929450 0.775722 7.705157 28
 6.801984 0.823573 7.625543 28
 6.788272 0.705521 7.493778 28
 7.171700 0.247466 7.419160 28
 7.302215 0.190436 7.492648 28
 7.275958 0.316941 7.592892 28
 7.809556 0.964260 8.773808 28
 7.810327 0.850372 8.660686 28
 8.014078 0.559529 8.573606 28
 7.204134 0.124253 7.328383 28
 5.574383 0.760526 6.334886 28
 5.472854 0.651649 6.124484 28
 7.638889 0.000000 7.638889 28
 7.777778 0.000000 7.777778 28
 7.724136 0.155138 7.879271 28
 7.569445 0.094249 7.663693 28
 5.899824 0.937686 6.837482 28
 6.012587 0.979377 6.991940 28
 5.884440 1.047806 6.932220 28
 7.949980 0.968231 8.918201 28
 6.086993 0.833166 6.920140 28
 6.152033 0.968888 7.120900 28
 5.613404 0.247793 5.861187 28
 5.775684 0.178337 5.954012 28
 5.738230 0.320551 6.058770 28
 8.248993 0.587877 8.836865 28
 8.138595 0.527782 8.666376 28
 5.815335 0.449445 6.264761 28
 8.168266 0.324664 8.492925 28
 8.206525 0.729662 8.936182 28
 7.846552 0.756488 8.603030 28
 6.666667 0.000000 6.666667 28
 5.656200 0.116656 5.772852 28
 7.044038 0.280671 7.324705 28
 7.336075 1.231452 8.567501 28
 7.169745 1.239987 8.409712 28
 7.261079 1.146039 8.407098 28
 7.457663 0.674062 8.131717 28
 7.462380 1.464749 8.927094 28
 7.388029 1.351707 8.739712 28
 7.538618 1.349015 8.887607 28
 7.462672 1.262592 8.725239 28
 6.759270 1.021705 7.780958 28
 6.719118 1.165979 7.885077 28
 6.623026 1.060949 7.683956 28
 8.182172 0.226299 8.408467 28
 7.102610 1.031868 8.134459 28
 5.776108 0.965661 6.741741 28
 5.746908 1.073127 6.820008 28
 6.669121 0.801367 7.470470 28
 6.635121 0.669872 7.304982 28
 7.372607 1.087612 8.460204 28
 7.239058 1.351035 8.590071 28
 8.071854 0.420917 8.492766 28
 6.783769 0.483042 7.266799 28
 6.804168 0.361318 7.165477 28
 8.167719 0.849068 9.016781 28
 8.313864 0.866223 9.180080 28
 8.175214 0.985853 9.161062 28
 8.375373 0.580966 8.956341 28
 8.331158 0.720848 9.052013 28
 6.324122 0.610765 6.934876 28
 6.351065 0.492053 6.843107 28
 5.964937 0.861226 6.826138 28
 5.967681 0.740476 6.708138 28
 6.096727 0.612747 6.709455 28
 6.209965 0.725599 6.935551 28
 6.069672 0.717208 6.786862 28
 5.416667 0.000000 5.416667 28
 5.555555 0.000000 5.555555 28
 5.504745 0.142925 5.647665 28
 6.319388 0.847432 7.166804 28
 6.376384 0.726212 7.102579 28
 7.893880 1.056013 8.949880 28
 7.258426 1.044417 8.302828 28
 7.190665 0.931192 8.121844 28
 5.776990 0.694899 6.471868 28
 5.785912 0.573163 6.359056 28
 6.204954 0.596510 6.801447 28
 6.905020 0.667579 7.572586 28
 7.361111 0.000000 7.361111 28
 7.430360 0.115371 7.545729 28
 7.298603 0.081500 7.380102 28
 5.736123 0.856853 6.592954 28
 7.574777 0.208464 7.783239 28
 7.413603 0.246067 7.659666 28
 7.517454 0.318836 7.836288 28
 8.347806 0.472575 8.820386 28
 5.857598 0.815424 6.672999 28
 6.111111 0.000000 6.111111 28
 6.250000 0.000000 6.250000 28
 6.180937 0.137478 6.318412 28
 5.636862 1.106228 6.743058 28
 7.167843 0.736264 7.904096 28
 7.038102 0.646844 7.684934 28
 6.846932 1.120401 7.967316 28
 7.376606 0.756333 8.132931 28
 7.500000 0.000000 7.500000 28
 7.221816 1.512943 8.734740 28
 5.678832 0.759675 6.438481 28
 5.847640 0.347198 6.194826 28
 6.814268 1.252717 8.066965 28
 6.944895 1.193835 8.138711 28
 8.469637 0.651486 9.121128 28
 6.883154 0.113225 6.996377 28
 5.622250 0.846234 6.468455 28
 7.475721 1.154086 8.629786 28
 5.878862 0.239091 6.117945 28
 5.876892 0.663522 6.540395 28
 5.972222 0.000000 5.972222 28
 6.067082 0.109985 6.177066 28
 5.898426 0.116071 6.014492 28
 7.083333 0.000000 7.083333 28
 7.079720 0.141202 7.220921 28
 8.592486 0.390641 8.983123 28
 8.721608 0.441784 9.163387 28
 8.581511 0.496440 9.077956 28
 7.168542 1.126727 8.295249 28
 7.657166 0.302552 7.959718 28
 7.781382 0.302012 8.083391 28
 7.222222 0.000000 7.222222 28
 7.067441 0.778951 7.846379 28
 5.401428 0.214096 5.615519 28
 8.055555 0.000000 8.055555 28
 5.387472 0.522666 5.910127 28
 5.389453 0.105653 5.495104 28
 8.669917 0.579927 9.249847 28
 7.874085 0.115023 7.989110 28
 6.502028 0.681337 7.183351 28
 7.265856 0.824856 8.090699 28
 6.866995 1.028238 7.895215 28
 7.617286 0.798666 8.415938 28
 6.474845 0.818576 7.293406 28
 5.468232 0.781475 6.249682 28
 7.925094 0.350582 8.275677 28
 8.070436 0.288870 8.359305 28
 7.973966 0.206973 8.180936 28
 5.694445 0.000000 5.694445 28
 7.855732 0.225946 8.081680 28
 8.660844 0.299258 8.960098 28
 5.994103 0.213297 6.207390 28
 7.311299 1.434176 8.745445 28
 7.753076 0.535534 8.288602 28
 6.433274 0.580817 7.014077 28
 6.743394 0.907869 7.651247 28
 6.604926 0.235275 6.840193 28
 6.723753 0.280204 7.003950 28
 6.899308 0.555920 7.455218 28
 6.767800 0.593947 7.361735 28
 6.264836 0.224408 6.489238 28
 7.559259 0.720355 8.279603 28
 7.646367 0.999774 8.646126 28
 7.916667 0.000000 7.916667 28
 7.063766 1.154066 8.217815 28
 6.201790 0.855314 7.057086 28
 6.303110 0.114363 6.417468 28
 6.498920 0.145414 6.644326 28
 6.527778 0.000000 6.527778 28
 6.405153 0.101550 6.506699 28
 6.955204 0.201777 7.156973 28
 6.845220 0.241074 7.086291 28
 6.569833 0.765405 7.335224 28
 8.052592 0.914370 8.966951 28
 6.388889 0.000000 6.388889 28
 6.096117 0.210944 6.307054 28
 6.515819 0.965129 7.480930 28
 6.575046 0.857318 7.432347 28
 8.030745 1.035779 9.066514 28
 5.277778 0.000000 5.277778 28
 7.146887 0.834979 7.981853 28
 5.285372 0.138369 5.423734 28
 7.281088 0.725714 8.006787 28
 6.578643 0.084081 6.662719 28
 5.833333 0.000000 5.833333 28
 7.740407 0.769692 8.510093 28
 7.662305 0.690173 8.352469 28
 7.794248 0.634852 8.429088 28
 6.645611 0.936113 7.581707 28
 7.702896 0.885367 8.588251 28
 8.467130 0.526815 8.993943 28
 8.558815 0.590910 9.149733 28
 7.954675 0.465097 8.419764 28
 7.830323 0.394099 8.224415 28
 6.944445 0.000000 6.944445 28
 8.473415 0.416624 8.890044 28
 7.849445 0.496616 8.346050 28
 7.904535 0.585217 8.489747 28
 6.987447 0.093535 7.080978 28
 5.389285 0.867283 6.256485 28
 5.763889 0.075243 5.839128 28
 7.983811 0.092829 8.076646 28
 6.901521 0.436730 7.338245 28
 5.986506 0.632032 6.618518 28
 7.557285 0.622383 8.179657 28
 6.116432 0.504141 6.620557 28
 6.924089 0.321164 7.245241 28
 5.955906 0.325406 6.281302 28
 5.925706 0.435554 6.361242 28
 5.899045 0.541603 6.440630 28
 6.025506 0.407118 6.432612 28
 6.009024 0.516635 6.525644 28
 6.063309 0.305677 6.368974 28
 6.263386 0.959293 7.222657 28
 1 2 3 
 4 5 6 
 7 8 9 
 4 6 10 
 11 12 13 
 14 15 16 
 17 18 19 
 1 20 21 
 22 23 24 
 25 24 23 
 26 27 28 
 29 30 31 
 32 33 34 
 35 36 24 
 24 36 37 
 38 39 40 
 41 42 43 
 44 45 46 
 7 9 47 
 48 47 9 
 49 50 51 
 52 53 54 
 55 9 56 
 57 58 19 
 59 60 61 
 49 19 58 
 62 63 64 
 31 30 65 
 66 54 53 
 44 67 45 
 1 68 2 
 62 69 63 
 70 71 72 
 1 21 68 
 73 74 75 
 64 76 77 
 62 78 69 
 55 61 60 
 73 79 74 
 80 81 3 
 1 3 81 
 82 83 84 
 82 84 85 
 9 8 56 
 86 87 88 
 89 76 64 
 90 91 87 
 92 93 94 
 95 69 96 
 70 13 12 
 2 94 97 
 50 98 51 
 70 12 71 
 95 99 69 
 62 64 100 
 48 9 75 
 101 32 34 
 92 102 93 
 59 103 60 
 104 105 106 
 7 107 8 
 108 109 110 
 111 110 109 
 112 113 114 
 115 28 27 
 11 13 116 
 44 117 118 
 57 40 39 
 119 120 72 
 57 19 40 
 121 6 5 
 122 105 104 
 123 50 96 
 95 96 50 
 18 40 19 
 29 31 124 
 125 124 31 
 55 60 9 
 17 19 27 
 126 127 128 
 95 129 130 
 131 35 132 
 90 133 134 
 135 136 137 
 138 139 140 
 141 136 142 
 131 142 136 
 76 143 15 
 99 127 126 
 130 127 99 
 121 144 6 
 145 6 144 
 73 60 103 
 146 3 147 
 135 148 136 
 90 134 137 
 70 72 149 
 150 151 152 
 44 153 117 
 154 155 151 
 49 51 19 
 119 72 71 
 154 156 155 
 49 157 50 
 146 158 153 
 154 85 84 
 159 160 161 
 44 118 162 
 163 164 56 
 112 165 113 
 166 8 107 
 150 167 151 
 122 168 42 
 146 169 3 
 131 148 35 
 170 97 94 
 95 50 157 
 171 172 43 
 130 129 173 
 32 174 33 
 80 175 46 
 111 104 176 
 121 176 104 
 166 10 6 
 93 177 94 
 146 178 158 
 179 180 181 
 182 79 183 
 123 98 50 
 184 185 186 
 187 106 105 
 154 84 188 
 189 188 84 
 182 190 79 
 2 68 94 
 163 191 164 
 192 140 21 
 92 21 140 
 193 26 28 
 1 194 20 
 192 21 20 
 44 46 175 
 170 94 177 
 134 158 178 
 138 140 195 
 139 102 140 
 41 43 172 
 196 186 185 
 83 197 84 
 86 117 158 
 153 158 117 
 2 147 3 
 198 30 120 
 29 120 30 
 95 130 99 
 145 199 6 
 166 6 199 
 11 200 12 
 126 63 99 
 69 99 63 
 4 10 201 
 44 175 153 
 146 153 169 
 198 202 142 
 74 152 151 
 80 46 203 
 123 204 205 
 206 205 204 
 80 3 169 
 139 207 102 
 122 42 105 
 189 84 208 
 145 116 13 
 57 39 209 
 210 181 180 
 1 81 194 
 108 211 109 
 41 105 42 
 115 205 28 
 206 28 205 
 184 209 185 
 52 54 212 
 198 142 213 
 115 51 98 
 25 213 132 
 25 30 213 
 187 116 144 
 145 144 116 
 112 214 12 
 35 24 132 
 215 34 216 
 33 216 34 
 217 149 218 
 90 87 133 
 90 137 136 
 9 60 75 
 22 24 219 
 72 120 218 
 112 12 200 
 220 201 10 
 80 203 81 
 25 65 30 
 4 221 5 
 215 31 65 
 83 222 197 
 141 142 202 
 76 89 143 
 55 56 164 
 131 136 148 
 123 96 78 
 69 78 96 
 37 219 24 
 111 109 104 
 122 104 109 
 41 223 105 
 141 224 136 
 90 136 224 
 125 31 216 
 215 216 31 
 90 224 91 
 160 225 161 
 215 23 226 
 22 226 23 
 227 226 228 
 131 213 142 
 229 230 174 
 14 5 221 
 171 165 172 
 72 218 149 
 26 17 27 
 84 197 208 
 171 113 165 
 198 231 202 
 73 183 79 
 92 68 21 
 126 128 232 
 233 227 228 
 25 132 24 
 74 155 75 
 159 161 180 
 70 164 191 
 37 161 219 
 37 234 161 
 235 202 236 
 33 174 230 
 122 211 168 
 92 140 102 
 237 232 128 
 73 75 60 
 48 75 155 
 238 138 195 
 145 13 239 
 238 195 240 
 166 241 8 
 55 164 61 
 217 61 164 
 70 191 13 
 215 226 242 
 134 133 158 
 160 233 225 
 64 63 232 
 184 58 209 
 57 209 58 
 11 172 165 
 243 179 181 
 179 159 180 
 76 15 221 
 244 245 246 
 52 246 245 
 86 133 87 
 66 188 54 
 189 54 188 
 73 103 183 
 229 183 103 
 187 105 223 
 235 247 114 
 220 10 107 
 166 107 10 
 112 114 247 
 206 204 208 
 189 208 204 
 126 232 63 
 4 201 248 
 249 250 173 
 217 218 124 
 41 172 223 
 123 251 204 
 121 104 106 
 29 218 120 
 14 221 15 
 215 242 34 
 215 65 23 
 112 200 165 
 12 214 71 
 189 204 252 
 92 94 68 
 192 195 140 
 115 27 51 
 19 51 27 
 76 248 77 
 244 77 248 
 70 149 164 
 217 164 149 
 4 248 221 
 32 253 174 
 119 71 214 
 154 151 85 
 167 85 151 
 76 221 248 
 49 254 157 
 62 100 246 
 244 246 100 
 255 256 246 
 182 183 257 
 119 214 247 
 46 45 258 
 255 246 212 
 253 182 257 
 66 47 156 
 123 205 98 
 64 232 89 
 64 77 100 
 18 38 40 
 11 165 200 
 62 246 256 
 249 157 254 
 93 259 181 
 243 181 259 
 44 162 67 
 22 228 226 
 123 78 251 
 74 151 155 
 66 156 188 
 154 188 156 
 111 16 110 
 48 156 47 
 52 212 246 
 62 256 78 
 227 242 226 
 204 251 252 
 167 82 85 
 206 197 260 
 222 260 197 
 222 193 260 
 125 261 124 
 217 124 261 
 11 116 223 
 187 223 116 
 135 137 262 
 193 28 260 
 255 252 251 
 235 236 247 
 206 260 28 
 210 177 181 
 93 181 177 
 86 158 133 
 229 257 183 
 233 228 225 
 121 106 144 
 134 262 137 
 227 101 242 
 13 191 239 
 237 89 232 
 249 254 186 
 59 61 261 
 217 261 61 
 192 240 195 
 163 56 241 
 198 213 30 
 8 241 56 
 255 54 252 
 189 252 54 
 48 155 156 
 190 150 152 
 131 132 213 
 11 223 172 
 206 208 197 
 14 176 5 
 121 5 176 
 255 212 54 
 161 225 219 
 22 219 225 
 207 243 259 
 66 53 47 
 7 53 263 
 7 263 107 
 249 173 129 
 35 148 264 
 135 264 148 
 184 186 254 
 59 261 265 
 125 265 261 
 170 266 267 
 2 97 147 
 268 147 97 
 269 264 270 
 29 124 218 
 122 109 211 
 269 36 264 
 207 259 102 
 93 102 259 
 119 247 236 
 25 23 65 
 22 225 228 
 187 144 106 
 237 143 89 
 7 47 53 
 269 271 36 
 37 36 271 
 52 245 263 
 255 251 256 
 78 256 251 
 112 247 214 
 229 265 230 
 59 265 103 
 229 103 265 
 244 248 201 
 95 157 129 
 249 129 157 
 163 199 239 
 145 239 199 
 210 266 177 
 46 258 203 
 220 263 245 
 198 120 231 
 119 231 120 
 101 34 242 
 115 98 205 
 141 272 224 
 91 224 272 
 210 271 266 
 163 241 199 
 184 254 58 
 229 174 257 
 166 199 241 
 37 271 234 
 190 152 79 
 52 263 53 
 269 267 266 
 80 169 175 
 153 175 169 
 14 16 176 
 111 176 16 
 49 58 254 
 125 216 230 
 33 230 216 
 170 177 266 
 74 79 152 
 170 267 97 
 220 107 263 
 249 186 250 
 146 147 178 
 253 257 174 
 268 178 147 
 244 100 77 
 269 266 271 
 135 262 270 
 163 239 191 
 86 88 117 
 118 117 88 
 269 270 267 
 268 267 270 
 268 270 262 
 210 180 234 
 161 234 180 
 268 262 178 
 220 245 201 
 244 201 245 
 210 234 271 
 196 250 186 
 135 270 264 
 134 178 262 
 268 97 267 
 125 230 265 
 35 264 36 
 119 236 231 
 202 231 236 
