TITLE      =  "2D FE Unstructured grid data" 
VARIABLES = "X", "Y", "U", "Dom" 
ZONE T="P1", F=FEPOINT, N= 275 E= 474  ET=TRIANGLE 
 8.247979 6.817800 15.065770 11
 8.113981 6.873288 14.987258 11
 8.217145 6.704888 14.922017 11
 8.739079 7.475795 16.214872 11
 8.787069 7.324305 16.111359 11
 8.863484 7.510697 16.374172 11
 9.238634 6.557529 15.796148 11
 9.209997 6.687902 15.897886 11
 9.073569 6.634866 15.708416 11
 8.057467 7.442184 15.499634 11
 8.013730 7.613206 15.626925 11
 7.937085 7.511055 15.448126 11
 9.128688 6.469355 15.598024 11
 8.229831 7.968397 16.198208 11
 8.261547 7.818151 16.079687 11
 8.329817 7.931155 16.260965 11
 8.139606 7.515463 15.655051 11
 8.517939 6.968341 15.486259 11
 8.467883 6.821981 15.289848 11
 8.634856 6.903939 15.538777 11
 8.402851 7.835985 16.238821 11
 8.373713 7.688981 16.062685 11
 9.218946 7.016593 16.235523 11
 9.114326 7.037601 16.151915 11
 9.116414 6.888556 16.004953 11
 8.599419 6.770926 15.370322 11
 7.695690 7.911520 15.607204 11
 7.718913 8.041488 15.760393 11
 7.580945 7.964810 15.545750 11
 8.554075 6.198953 14.753019 11
 8.398484 6.284443 14.682915 11
 8.440294 6.124748 14.565045 11
 9.782336 6.375421 16.157747 11
 9.714513 6.491006 16.205502 11
 9.647049 6.309723 15.956768 11
 9.449766 6.670732 16.120478 11
 9.491693 6.805404 16.297081 11
 9.328373 6.770059 16.098421 11
 9.573372 6.456118 16.029490 11
 9.475797 6.554090 16.029869 11
 9.598319 6.671058 16.269365 11
 8.641073 7.230170 15.871226 11
 8.528239 7.101644 15.629869 11
 8.660903 7.060245 15.721133 11
 8.537523 6.316555 14.854066 11
 8.330523 7.491629 15.822138 11
 8.214594 7.419095 15.633673 11
 8.358824 7.344438 15.703256 11
 10.000000 6.805555 16.805555 11
 9.831214 6.780807 16.612015 11
 9.877488 6.669086 16.546570 11
 8.425339 7.441966 15.867295 11
 8.998612 6.515900 15.514495 11
 9.510895 6.232086 15.742965 11
 9.597271 6.130297 15.727562 11
 9.711719 6.175150 15.886861 11
 9.758457 7.177536 16.935984 11
 9.807975 7.302424 17.110392 11
 9.676048 7.282984 16.959026 11
 8.099681 7.753994 15.853671 11
 7.956195 7.781517 15.737692 11
 8.392323 7.113672 15.505980 11
 8.491088 7.224000 15.715077 11
 8.321747 7.212061 15.533798 11
 8.133303 7.330774 15.464056 11
 7.548998 7.737122 15.286107 11
 7.428339 7.792615 15.220946 11
 7.404126 7.691044 15.095160 11
 9.389372 6.885819 16.275177 11
 9.276552 6.921955 16.198492 11
 9.633027 6.555438 16.188459 11
 9.389235 6.324122 15.713340 11
 9.279037 6.403996 15.683009 11
 9.273932 6.211929 15.485847 11
 9.151763 6.320628 15.472373 11
 7.547637 7.627882 15.175508 11
 9.875747 7.204134 17.079878 11
 8.165002 7.887933 16.052921 11
 8.860770 7.173469 16.034224 11
 8.747341 7.151793 15.899108 11
 7.693719 7.424534 15.118235 11
 7.667307 7.567999 15.235291 11
 7.550650 7.502038 15.052671 11
 9.203280 7.127573 16.330853 11
 9.026397 7.154194 16.180576 11
 8.993132 6.994118 15.987230 11
 9.166834 6.086993 15.253812 11
 9.019207 6.168121 15.187307 11
 9.011252 6.006241 15.017466 11
 8.390642 6.695442 15.086061 11
 8.346403 6.799728 15.146114 11
 8.218075 7.644967 15.863029 11
 8.545636 7.859164 16.404783 11
 8.439276 7.975345 16.414612 11
 9.740313 5.638144 15.378446 11
 9.818915 5.770711 15.589620 11
 9.723989 5.769244 15.493228 11
 8.735496 6.378618 15.114087 11
 8.753009 6.218511 14.971502 11
 8.849186 6.340629 15.189796 11
 8.641857 7.558207 16.200054 11
 8.648011 7.383770 16.031771 11
 8.535125 7.462648 15.997760 11
 10.000000 6.666667 16.666668 11
 8.210576 7.000502 15.211065 11
 8.259361 7.106859 15.366208 11
 8.104674 7.104176 15.208838 11
 9.878208 5.660171 15.538384 11
 8.868824 6.204435 15.073237 11
 8.322412 6.618354 14.940752 11
 8.929633 6.639293 15.568913 11
 8.847431 6.494970 15.342376 11
 8.786765 6.643507 15.430258 11
 8.483023 7.750613 16.233616 11
 9.643176 6.816199 16.459360 11
 9.407954 6.992599 16.400541 11
 9.319554 7.073822 16.393358 11
 7.380548 7.964545 15.345086 11
 7.327610 7.829855 15.157455 11
 7.459446 7.887070 15.346509 11
 8.889911 6.068428 14.958311 11
 8.948379 6.302454 15.250811 11
 8.703649 6.529664 15.233295 11
 9.035880 6.385995 15.421857 11
 9.507947 6.351065 15.859001 11
 9.136582 5.963425 15.099989 11
 9.259523 5.967681 15.227181 11
 7.081625 7.688628 14.770257 11
 7.204169 7.596014 14.800167 11
 7.201718 7.753582 14.955284 11
 9.387253 6.096727 15.483964 11
 9.282792 6.069672 15.352444 11
 7.292130 7.686495 14.978615 11
 9.305101 5.776990 15.082069 11
 9.396482 5.642149 15.038605 11
 9.427407 5.788477 15.215866 11
 9.403490 6.204954 15.608433 11
 8.391196 6.923357 15.314541 11
 7.924693 7.911226 15.835903 11
 8.045691 7.919219 15.964899 11
 9.206174 6.801451 16.007610 11
 10.000000 7.361111 17.361111 11
 9.884402 7.430390 17.314785 11
 9.916790 7.300453 17.217243 11
 8.157418 8.042859 16.200264 11
 7.588938 7.384161 14.973087 11
 7.994339 7.206226 15.200550 11
 8.021855 7.314355 15.336191 11
 7.888251 7.288100 15.176338 11
 7.942094 7.391339 15.333418 11
 10.000000 6.111111 16.111111 11
 10.000000 6.250000 16.250000 11
 9.862522 6.180937 16.043453 11
 8.600173 6.425545 15.025700 11
 8.573090 6.070598 14.643669 11
 10.000000 7.500000 17.500000 11
 8.426731 7.554425 15.981150 11
 8.538711 7.638179 16.176870 11
 8.851854 7.031663 15.883499 11
 9.886647 6.882835 16.769485 11
 8.747673 7.001902 15.749560 11
 7.559846 7.847754 15.407587 11
 8.875700 6.782248 15.657930 11
 9.000566 6.760541 15.761086 11
 8.192064 7.196077 15.388125 11
 8.784682 6.896964 15.681628 11
 8.725403 6.775643 15.501022 11
 7.894087 7.659541 15.553621 11
 9.336540 5.877294 15.213814 11
 9.184378 5.857446 15.041802 11
 10.000000 5.972222 15.972221 11
 9.890016 6.067082 15.957094 11
 9.884097 5.897996 15.782088 11
 10.000000 7.083333 17.083332 11
 9.858798 7.079720 16.938507 11
 10.000000 7.222222 17.222221 11
 7.806349 7.866779 15.673122 11
 7.800468 7.735221 15.535679 11
 8.117773 7.631908 15.749655 11
 7.827438 7.419106 15.246522 11
 8.984689 6.868281 15.852954 11
 7.754587 7.508244 15.262812 11
 8.901613 6.914772 15.816369 11
 9.624385 7.011266 16.635649 11
 9.720688 7.050440 16.771120 11
 9.599318 7.152754 16.752066 11
 8.681143 7.679514 16.360643 11
 8.590138 7.746810 16.336931 11
 9.516789 5.717927 15.234691 11
 9.346112 6.510459 15.856556 11
 9.334600 6.631521 15.966104 11
 8.580176 8.027264 16.607433 11
 10.000000 5.555555 15.555555 11
 10.000000 5.694445 15.694445 11
 7.681553 7.796613 15.478148 11
 8.780966 7.599359 16.380314 11
 9.786703 5.994103 15.780805 11
 8.112045 6.987551 15.099584 11
 8.265223 6.914089 15.179295 11
 8.568451 7.303868 15.872300 11
 8.475490 7.356688 15.832170 11
 8.471024 6.393604 14.864620 11
 8.370759 6.427242 14.797995 11
 9.647109 5.717340 15.364429 11
 8.648626 6.277834 14.926441 11
 7.720278 7.311679 15.031942 11
 9.428583 6.433308 15.861875 11
 8.425138 7.016284 15.441405 11
 9.476728 6.925831 16.402559 11
 9.764725 6.604926 16.369644 11
 9.719796 6.723753 16.443550 11
 8.516747 6.686068 15.202802 11
 8.661390 6.660290 15.321661 11
 7.830132 7.981082 15.811203 11
 9.775592 6.264836 16.040421 11
 8.243887 7.530795 15.774670 11
 8.315578 8.057897 16.373472 11
 9.121345 6.754663 15.875998 11
 8.581032 6.579071 15.160090 11
 9.139549 6.204449 15.343983 11
 9.797285 6.954320 16.751595 11
 9.755142 6.843324 16.598473 11
 8.816823 7.728460 16.545279 11
 8.696080 7.813788 16.509865 11
 8.316641 7.582819 15.899444 11
 7.945772 8.015533 15.961302 11
 9.885636 6.303110 16.188732 11
 8.936102 6.409224 15.345301 11
 9.854586 6.498920 16.353508 11
 10.000000 6.527778 16.527779 11
 9.898450 6.405153 16.303598 11
 8.781055 6.104211 14.885245 11
 7.452387 7.587508 15.039876 11
 9.544719 5.824807 15.369506 11
 9.655012 5.846220 15.501220 11
 10.000000 6.388889 16.388889 11
 8.482416 6.500474 14.982874 11
 9.789057 6.096117 15.885177 11
 9.058955 6.276330 15.335265 11
 8.933039 7.088361 16.021387 11
 7.842809 7.549614 15.392406 11
 8.668210 6.148387 14.816577 11
 8.010467 7.001027 15.011485 11
 9.915918 6.578643 16.494558 11
 10.000000 5.833333 15.833333 11
 8.660126 7.930956 16.591072 11
 9.060925 5.898763 14.959664 11
 9.461488 7.110020 16.571499 11
 7.669476 7.682158 15.351621 11
 7.343606 7.591983 14.935580 11
 9.524220 7.030573 16.554781 11
 8.104228 7.239747 15.343961 11
 8.225373 7.289495 15.514856 11
 7.773861 7.628350 15.402196 11
 10.000000 6.944445 16.944445 11
 7.467947 8.026443 15.494388 11
 8.372476 6.533932 14.906398 11
 9.906357 6.987324 16.893684 11
 9.577426 6.911754 16.489174 11
 9.924757 5.763889 15.688649 11
 7.958073 7.099554 15.057617 11
 9.367978 5.986574 15.354537 11
 9.758597 5.873807 15.632400 11
 8.699404 6.020217 14.719594 11
 7.846719 8.090850 15.937555 11
 9.495859 6.116432 15.612274 11
 9.674578 5.954826 15.629394 11
 9.565812 5.926412 15.492212 11
 8.450120 6.602623 15.052725 11
 9.458397 5.899045 15.357432 11
 9.592882 6.025506 15.618383 11
 9.483365 6.009024 15.492375 11
 9.685886 6.927042 16.612932 11
 9.694324 6.063309 15.757626 11
 8.323970 7.012460 15.336417 11
 1 2 3 
 4 5 6 
 7 8 9 
 10 11 12 
 13 7 9 
 14 15 16 
 17 11 10 
 18 19 20 
 21 16 15 
 22 21 15 
 23 24 25 
 26 20 19 
 27 28 29 
 30 31 32 
 33 34 35 
 36 37 38 
 39 35 34 
 36 40 41 
 42 43 44 
 30 45 31 
 46 47 48 
 49 50 51 
 52 46 48 
 53 13 9 
 54 55 35 
 55 56 35 
 57 58 59 
 60 61 11 
 62 63 64 
 65 47 10 
 66 67 68 
 48 64 63 
 38 37 69 
 70 23 25 
 41 40 71 
 72 73 74 
 75 74 73 
 66 68 76 
 57 77 58 
 14 78 15 
 79 5 80 
 81 82 83 
 10 47 17 
 18 20 44 
 84 85 24 
 86 24 85 
 87 88 89 
 90 91 3 
 22 15 92 
 93 94 21 
 95 96 97 
 98 99 100 
 4 101 102 
 103 102 101 
 104 49 51 
 105 106 107 
 95 108 96 
 99 109 100 
 90 3 110 
 53 111 112 
 113 112 111 
 42 44 80 
 42 63 43 
 93 21 114 
 22 114 21 
 36 41 37 
 115 37 41 
 18 44 43 
 70 69 116 
 70 116 117 
 118 119 120 
 121 88 109 
 122 109 88 
 98 112 123 
 53 124 13 
 75 13 124 
 72 54 125 
 87 126 127 
 128 129 130 
 131 74 132 
 130 129 133 
 134 135 136 
 131 137 74 
 18 138 19 
 87 127 132 
 139 61 140 
 60 140 61 
 62 43 63 
 70 141 38 
 142 143 144 
 140 78 145 
 81 83 146 
 147 148 149 
 150 149 148 
 151 152 153 
 70 25 141 
 98 123 154 
 30 32 155 
 142 156 143 
 22 157 158 
 67 120 119 
 72 137 54 
 60 92 15 
 79 80 159 
 49 160 50 
 159 80 161 
 66 162 67 
 75 73 13 
 113 111 163 
 164 163 111 
 165 107 106 
 166 20 167 
 11 61 168 
 134 169 170 
 171 172 173 
 174 77 175 
 174 176 77 
 42 80 5 
 139 177 61 
 178 61 177 
 113 123 112 
 60 11 179 
 27 29 162 
 150 180 149 
 87 89 126 
 164 181 163 
 127 170 169 
 121 89 88 
 14 145 78 
 103 158 157 
 81 182 82 
 163 181 183 
 184 185 186 
 187 158 101 
 103 101 158 
 26 167 20 
 187 188 158 
 189 136 135 
 190 40 191 
 36 191 40 
 1 3 91 
 57 186 185 
 86 25 24 
 22 158 114 
 17 179 11 
 58 144 143 
 93 192 94 
 193 194 108 
 27 162 195 
 13 73 7 
 190 7 73 
 4 196 101 
 197 173 172 
 36 38 191 
 8 191 38 
 105 107 198 
 105 2 199 
 103 200 102 
 103 201 200 
 202 203 31 
 95 97 204 
 98 154 205 
 8 38 141 
 81 146 206 
 67 119 68 
 133 68 119 
 39 207 125 
 39 40 207 
 62 208 43 
 209 69 37 
 54 35 125 
 210 51 211 
 50 211 51 
 87 132 74 
 1 199 2 
 26 212 213 
 98 100 112 
 27 177 214 
 33 35 215 
 48 63 201 
 70 38 69 
 27 214 28 
 164 25 181 
 39 71 40 
 17 47 216 
 14 217 145 
 210 41 71 
 218 25 164 
 98 205 99 
 72 74 137 
 219 154 123 
 56 215 35 
 4 102 5 
 187 101 196 
 105 198 2 
 44 20 161 
 87 74 220 
 75 220 74 
 221 222 160 
 17 92 179 
 187 223 224 
 22 92 225 
 86 181 25 
 210 211 41 
 115 41 211 
 66 195 162 
 139 140 226 
 42 5 102 
 152 227 153 
 53 112 228 
 210 34 229 
 33 229 34 
 230 229 231 
 90 212 19 
 26 19 212 
 166 183 159 
 166 167 163 
 202 31 45 
 17 216 92 
 18 208 138 
 164 111 9 
 121 109 232 
 99 232 109 
 150 12 180 
 233 76 68 
 84 23 117 
 44 161 80 
 189 204 234 
 235 234 204 
 166 163 183 
 57 175 77 
 72 207 73 
 190 73 207 
 60 179 92 
 53 9 111 
 236 230 231 
 39 125 35 
 50 160 222 
 219 237 154 
 202 154 237 
 151 153 172 
 56 153 215 
 56 238 153 
 113 213 123 
 87 220 88 
 86 159 183 
 122 88 239 
 79 240 85 
 154 45 205 
 219 213 212 
 60 78 140 
 42 200 63 
 57 59 186 
 48 201 52 
 86 85 240 
 241 180 12 
 30 242 205 
 11 168 12 
 241 12 168 
 243 2 198 
 202 45 154 
 210 229 244 
 127 126 170 
 152 236 227 
 99 205 242 
 113 163 167 
 70 117 23 
 217 16 94 
 245 171 173 
 93 246 192 
 60 15 78 
 171 151 172 
 178 168 61 
 138 199 91 
 247 126 89 
 209 116 69 
 22 225 157 
 187 224 188 
 248 117 116 
 138 91 19 
 93 224 246 
 166 161 20 
 82 249 76 
 133 129 250 
 26 213 167 
 184 186 251 
 1 91 199 
 178 195 249 
 18 43 208 
 210 244 51 
 210 71 34 
 65 252 253 
 166 159 161 
 219 123 213 
 178 249 254 
 46 216 47 
 49 255 160 
 86 240 159 
 178 177 195 
 27 195 177 
 112 100 228 
 57 185 175 
 221 175 185 
 29 256 120 
 257 203 237 
 202 237 203 
 174 175 258 
 79 159 240 
 209 259 251 
 8 218 9 
 165 253 252 
 255 174 258 
 115 259 37 
 209 37 259 
 81 206 180 
 149 180 206 
 248 251 186 
 46 157 225 
 84 24 23 
 25 218 141 
 96 260 173 
 245 173 260 
 4 6 196 
 33 231 229 
 82 76 83 
 243 107 261 
 147 261 107 
 29 120 162 
 90 19 91 
 230 244 229 
 93 188 224 
 150 10 12 
 147 107 252 
 165 252 107 
 8 141 218 
 131 132 262 
 118 120 256 
 184 251 259 
 53 228 124 
 66 76 249 
 243 198 107 
 197 263 173 
 96 173 263 
 247 170 126 
 221 258 175 
 236 231 227 
 264 242 155 
 103 52 201 
 82 182 254 
 241 254 182 
 127 262 132 
 164 9 218 
 86 183 181 
 230 104 244 
 103 157 52 
 122 124 228 
 65 253 47 
 187 196 223 
 265 214 226 
 113 167 213 
 133 119 130 
 190 207 40 
 176 142 144 
 72 125 207 
 48 47 253 
 153 227 215 
 33 215 227 
 194 245 260 
 122 239 124 
 75 124 239 
 54 137 266 
 131 266 137 
 30 155 242 
 235 267 268 
 14 16 217 
 219 212 269 
 189 234 136 
 270 136 234 
 30 205 45 
 241 182 180 
 81 180 182 
 271 266 272 
 235 204 97 
 90 110 269 
 65 10 148 
 63 200 201 
 42 102 200 
 264 232 242 
 62 64 106 
 184 273 185 
 221 185 273 
 67 162 120 
 271 55 266 
 96 108 260 
 194 260 108 
 39 34 71 
 257 269 110 
 178 254 168 
 241 168 254 
 33 227 231 
 221 273 222 
 122 100 109 
 93 114 188 
 158 188 114 
 46 52 157 
 139 214 177 
 271 274 55 
 56 55 274 
 150 148 10 
 209 251 116 
 219 269 237 
 197 267 263 
 104 51 244 
 8 7 191 
 190 191 7 
 197 274 267 
 105 199 275 
 88 220 239 
 75 239 220 
 221 160 258 
 56 274 238 
 176 144 77 
 90 269 212 
 21 94 16 
 271 268 267 
 165 106 64 
 233 83 76 
 235 263 267 
 58 77 144 
 235 268 234 
 138 275 199 
 48 253 64 
 134 136 169 
 265 28 214 
 184 259 273 
 66 249 195 
 255 258 160 
 270 169 136 
 139 226 214 
 115 211 222 
 50 222 211 
 115 273 259 
 271 267 274 
 131 262 272 
 105 275 106 
 270 268 272 
 271 272 268 
 235 97 263 
 96 263 97 
 270 272 262 
 122 228 100 
 233 68 250 
 133 250 68 
 197 172 238 
 65 148 252 
 248 116 251 
 153 238 172 
 257 237 269 
 270 262 169 
 99 242 232 
 82 254 249 
 197 238 274 
 131 272 266 
 62 106 275 
 127 169 262 
 92 216 225 
 270 234 268 
 165 64 253 
 147 252 148 
 54 266 55 
 115 222 273 
 46 225 216 
 62 275 208 
 138 208 275 
