TITLE      =  "2D FE Unstructured grid data" 
VARIABLES = "X", "Y", "U", "Dom" 
ZONE T="P1", F=FEPOINT, N= 268 E= 471  ET=TRIANGLE 
 7.164596 2.778845 9.943434 23
 7.262382 2.722581 9.984948 23
 7.201928 2.902174 10.104090 23
 7.342909 2.799273 10.142177 23
 7.498225 2.583424 10.081636 23
 7.622765 2.702036 10.324794 23
 7.500171 2.698773 10.198937 23
 9.342519 2.234407 11.576921 23
 9.423470 2.119010 11.542480 23
 9.476007 2.231205 11.707216 23
 7.068633 3.034311 10.102927 23
 7.052530 2.925088 9.977598 23
 9.077063 2.646301 11.723360 23
 9.210153 2.670109 11.880254 23
 9.084210 2.774578 11.858783 23
 8.475585 2.287620 10.763211 23
 8.630102 2.254541 10.884637 23
 8.581976 2.361500 10.943470 23
 8.504636 2.169859 10.674491 23
 7.219480 2.344383 9.563842 23
 7.363740 2.410020 9.773743 23
 7.257778 2.463959 9.721715 23
 7.340687 3.445907 10.786582 23
 7.209900 3.518409 10.728294 23
 7.257548 3.368222 10.625760 23
 7.312423 2.260671 9.573075 23
 7.173300 3.083775 10.257056 23
 9.421269 2.339659 11.760922 23
 7.620184 2.556905 10.177073 23
 7.787800 3.842246 11.630028 23
 7.717743 3.712051 11.429790 23
 7.853895 3.704172 11.558060 23
 8.289977 3.084625 11.374600 23
 8.203995 3.214273 11.418267 23
 8.182261 3.044488 11.226745 23
 7.734658 2.641909 10.376558 23
 7.085173 2.293885 9.379039 23
 7.198239 2.211733 9.409956 23
 8.980727 1.969311 10.950040 23
 9.107937 2.061746 11.169668 23
 8.974391 2.102736 11.077120 23
 8.512171 3.029562 11.541733 23
 8.501996 2.902117 11.404108 23
 8.635534 3.000477 11.636003 23
 8.312034 2.436220 10.748252 23
 8.406985 2.544760 10.951741 23
 8.237949 2.582546 10.820482 23
 8.632577 2.858719 11.491287 23
 8.874151 2.322065 11.196220 23
 8.764855 2.203482 10.968333 23
 8.916048 2.203379 11.119420 23
 8.461940 3.408179 11.870146 23
 8.602221 3.469974 12.072353 23
 8.437001 3.520203 11.957204 23
 8.740061 2.530812 11.270864 23
 8.666847 2.437385 11.104228 23
 8.841598 2.440845 11.282434 23
 7.919614 2.303614 10.223215 23
 7.874130 2.467033 10.341152 23
 7.794896 2.314073 10.108958 23
 7.725644 2.414804 10.140431 23
 8.742489 2.344617 11.087097 23
 9.192173 2.523767 11.715934 23
 8.920476 3.021576 11.942035 23
 8.855284 3.136485 11.991753 23
 8.782388 3.023703 11.806081 23
 8.719112 3.129190 11.848289 23
 8.917796 2.615546 11.533337 23
 9.044215 2.523352 11.567554 23
 7.310883 3.038144 10.349020 23
 7.393803 2.920684 10.314481 23
 7.442627 3.070481 10.513101 23
 8.303676 3.298969 11.602640 23
 8.225669 3.402265 11.627933 23
 8.119693 3.335945 11.455639 23
 8.104742 3.126991 11.231723 23
 8.838311 2.114829 10.953134 23
 8.393827 2.992672 11.386492 23
 8.366385 2.871074 11.237454 23
 7.518536 2.990162 10.508697 23
 8.138584 2.715771 10.854351 23
 8.073783 2.616538 10.690315 23
 7.486845 3.218712 10.705553 23
 7.466652 3.355587 10.822233 23
 7.330201 3.277953 10.608146 23
 9.697988 2.218618 11.916603 23
 9.574879 2.350617 11.925501 23
 9.586776 2.199703 11.786478 23
 8.576491 2.513322 11.089807 23
 8.642417 2.630529 11.272937 23
 8.365952 2.673563 11.039503 23
 8.334949 3.194570 11.529518 23
 8.962798 2.763805 11.726599 23
 8.134847 3.534906 11.669748 23
 8.280723 3.514709 11.795425 23
 7.592319 3.433949 11.026265 23
 7.679657 3.570265 11.249918 23
 7.536464 3.555036 11.091491 23
 7.550530 3.698022 11.248541 23
 7.707490 2.529548 10.237027 23
 8.126678 2.518943 10.645617 23
 9.128722 1.940146 11.068864 23
 7.068888 2.818274 9.887145 23
 7.983636 2.709339 10.692966 23
 8.034971 2.803290 10.838254 23
 8.040907 2.404523 10.445426 23
 7.434972 3.621327 11.056288 23
 8.547351 2.765906 11.313249 23
 8.666471 2.749717 11.416174 23
 7.315815 3.590630 10.906426 23
 9.518946 2.138441 11.657394 23
 7.845436 3.518463 11.363894 23
 7.950570 3.409978 11.360548 23
 7.993028 3.524222 11.517243 23
 7.413507 2.305499 9.718991 23
 7.563960 2.329350 9.893291 23
 7.501750 2.447927 9.949654 23
 8.190020 2.426300 10.616321 23
 8.122610 2.331050 10.453651 23
 8.515110 2.065522 10.580628 23
 8.402747 2.097991 10.500738 23
 8.457720 1.950579 10.408298 23
 8.499480 2.649626 11.149096 23
 7.126564 2.429618 9.556162 23
 8.486609 3.217386 11.704000 23
 8.413008 3.308919 11.721932 23
 7.179577 3.233610 10.413172 23
 8.578949 3.131859 11.710803 23
 8.421050 3.111072 11.532120 23
 8.335576 1.998213 10.333784 23
 7.823123 2.586313 10.409427 23
 9.386144 1.831876 11.218019 23
 9.426682 1.973511 11.400190 23
 9.272293 1.925536 11.197827 23
 9.312862 2.071491 11.384354 23
 8.044533 2.262336 10.306864 23
 8.542651 3.328246 11.870916 23
 8.652964 3.332888 11.985844 23
 7.259796 3.145880 10.405663 23
 8.450005 2.413283 10.863284 23
 8.872846 1.871586 10.744427 23
 9.019844 1.846440 10.866280 23
 9.167747 1.818970 10.986717 23
 7.739520 3.436522 11.176037 23
 9.024781 2.865752 11.890528 23
 8.925119 2.901931 11.827046 23
 8.856956 2.819974 11.676922 23
 7.613626 1.986608 9.600214 23
 7.777062 2.059184 9.836230 23
 7.653986 2.107674 9.761654 23
 7.735209 2.199541 9.934732 23
 7.859236 2.189422 10.048643 23
 7.920929 2.087509 10.008431 23
 7.879289 3.139514 11.018795 23
 7.888206 3.296390 11.184593 23
 7.778308 3.199289 10.977592 23
 9.097796 2.162515 11.260308 23
 7.391330 2.057900 9.449210 23
 7.421768 2.171318 9.593065 23
 7.288234 2.111815 9.400038 23
 7.651947 2.850164 10.502110 23
 7.775370 2.930329 10.705693 23
 7.640660 2.984742 10.625398 23
 7.510874 2.241171 9.752028 23
 7.447333 3.485706 10.933024 23
 8.860596 2.725816 11.586401 23
 8.754113 2.811574 11.565685 23
 8.340025 2.314593 10.654619 23
 7.839534 3.393071 11.232602 23
 7.941402 2.601359 10.542750 23
 8.011380 2.521679 10.533050 23
 7.971704 3.223093 11.194787 23
 8.770854 3.259098 12.029939 23
 8.721547 2.928189 11.649724 23
 7.759981 2.779103 10.539071 23
 7.896862 2.826248 10.723103 23
 8.992749 2.420148 11.412897 23
 8.644530 3.228079 11.872610 23
 7.490658 2.861258 10.351912 23
 7.440787 2.773346 10.214126 23
 8.773985 2.662411 11.436388 23
 8.264857 2.953717 11.218563 23
 7.108499 2.672402 9.780887 23
 9.214856 2.026828 11.241682 23
 7.363416 3.152739 10.516147 23
 7.730455 3.088658 10.819111 23
 7.657597 3.226219 10.883817 23
 7.582279 3.102443 10.684721 23
 8.434777 2.774361 11.209130 23
 8.931909 2.507634 11.439533 23
 7.237609 2.614172 9.851763 23
 7.153166 2.542537 9.695682 23
 7.787888 3.623500 11.411379 23
 9.517835 2.037037 11.554872 23
 7.574619 3.319385 10.894001 23
 8.258897 2.715691 10.974580 23
 7.977349 2.168581 10.145918 23
 9.284926 1.728074 11.012993 23
 9.451973 1.710454 11.162435 23
 9.209607 2.173393 11.383004 23
 8.079580 3.432795 11.512369 23
 7.422709 2.508872 9.931557 23
 7.377967 2.654471 10.032420 23
 7.322326 2.547752 9.870061 23
 8.843869 1.998749 10.842625 23
 8.228585 2.822122 11.050696 23
 7.907538 3.607256 11.514793 23
 8.224897 2.317063 10.541956 23
 8.729655 1.919936 10.649591 23
 7.857933 2.691714 10.549638 23
 9.574646 1.942917 11.517555 23
 9.498965 1.854079 11.353042 23
 9.623045 1.834179 11.457188 23
 7.773939 3.304002 11.077940 23
 7.510754 2.063014 9.573751 23
 8.842537 2.537799 11.380329 23
 8.733887 2.060268 10.794144 23
 8.621247 2.130070 10.751309 23
 7.845520 3.024067 10.869586 23
 9.216706 2.307020 11.523722 23
 7.891593 2.942861 10.834452 23
 7.672304 3.346754 11.019055 23
 9.001876 2.310028 11.311901 23
 8.817172 2.915550 11.732714 23
 9.019978 2.214086 11.234055 23
 7.549607 2.157194 9.706785 23
 9.113731 2.401212 11.514938 23
 9.644619 2.075948 11.720566 23
 9.111723 2.262382 11.374100 23
 9.555644 1.759653 11.315301 23
 7.569988 2.907280 10.477262 23
 9.300473 2.592718 11.893183 23
 7.995681 2.910770 10.906442 23
 9.328279 2.460347 11.788618 23
 8.120616 2.909976 11.030585 23
 9.312048 2.352547 11.664588 23
 8.232973 2.033170 10.266145 23
 8.114106 1.990244 10.104346 23
 8.227109 1.928613 10.155715 23
 9.061483 1.732573 10.794055 23
 7.677302 2.321094 9.998379 23
 9.229127 2.416507 11.645634 23
 7.622062 2.226642 9.848692 23
 7.944530 3.022892 10.967410 23
 8.004569 3.123369 11.127939 23
 9.280375 1.826902 11.107284 23
 8.086451 2.148384 10.234828 23
 7.999796 2.044643 10.044435 23
 8.195121 2.129306 10.324418 23
 8.059409 3.021968 11.081368 23
 8.130690 2.812789 10.943465 23
 9.030814 2.984897 12.015701 23
 6.949171 2.859374 9.808521 23
 8.075289 3.231018 11.306305 23
 7.889970 1.982472 9.872433 23
 7.040461 2.535963 9.576405 23
 8.380368 2.200007 10.580368 23
 9.171988 1.708324 10.880310 23
 8.330919 2.771362 11.102273 23
 6.962265 2.992604 9.954854 23
 8.158250 2.233232 10.391475 23
 8.019016 3.320478 11.339491 23
 8.260521 2.217895 10.478408 23
 7.986232 1.946766 9.932985 23
 7.622042 2.442154 10.064178 23
 8.348223 3.406164 11.754391 23
 7.549659 2.792630 10.342281 23
 8.298698 2.112085 10.410781 23
 1 2 3 
 2 4 3 
 5 6 7 
 8 9 10 
 11 12 3 
 13 14 15 
 16 17 18 
 16 19 17 
 20 21 22 
 23 24 25 
 20 26 21 
 27 11 3 
 28 8 10 
 29 6 5 
 30 31 32 
 33 34 35 
 36 6 29 
 20 37 38 
 39 40 41 
 42 43 44 
 45 46 47 
 43 48 44 
 49 50 51 
 52 53 54 
 55 56 57 
 58 59 60 
 61 60 59 
 56 62 57 
 63 14 13 
 64 65 66 
 67 66 65 
 68 69 13 
 70 71 72 
 73 74 34 
 75 34 74 
 76 35 34 
 77 51 50 
 42 78 43 
 79 43 78 
 62 50 49 
 80 72 71 
 81 82 47 
 83 84 85 
 23 85 84 
 86 87 88 
 89 55 90 
 89 56 55 
 91 47 46 
 33 92 34 
 68 13 93 
 94 74 95 
 96 97 98 
 99 98 97 
 36 29 100 
 101 47 82 
 39 102 40 
 61 59 100 
 12 103 3 
 1 3 103 
 82 81 104 
 104 81 105 
 58 106 59 
 99 107 98 
 108 90 109 
 23 110 24 
 111 10 9 
 112 113 114 
 115 116 117 
 101 106 118 
 119 118 106 
 120 121 122 
 123 90 108 
 20 124 37 
 125 126 92 
 4 71 3 
 127 85 25 
 42 128 129 
 125 129 128 
 121 130 122 
 63 13 69 
 70 27 3 
 59 131 100 
 132 133 134 
 135 134 133 
 58 136 106 
 52 137 53 
 138 53 137 
 99 97 31 
 28 10 87 
 127 139 85 
 20 22 124 
 16 18 140 
 39 141 142 
 143 134 102 
 125 92 129 
 112 97 144 
 96 144 97 
 89 140 18 
 87 10 88 
 145 146 93 
 147 93 146 
 148 149 150 
 151 149 152 
 153 152 149 
 154 155 156 
 40 157 41 
 158 159 160 
 161 162 163 
 119 106 136 
 115 164 116 
 107 110 165 
 62 49 57 
 166 147 167 
 115 117 21 
 16 140 168 
 112 169 113 
 45 140 46 
 170 59 171 
 172 155 154 
 67 65 173 
 174 44 48 
 161 175 162 
 176 162 175 
 177 57 49 
 125 178 137 
 179 71 180 
 180 71 4 
 70 3 71 
 181 166 167 
 45 168 140 
 79 78 182 
 1 103 183 
 134 184 102 
 23 25 85 
 80 71 179 
 83 85 185 
 23 165 110 
 89 90 123 
 186 187 188 
 79 189 43 
 68 190 69 
 191 192 22 
 62 18 17 
 112 193 97 
 1 183 2 
 191 2 183 
 67 44 66 
 133 194 9 
 83 187 195 
 33 182 78 
 96 165 84 
 81 47 196 
 91 46 123 
 89 123 46 
 85 139 185 
 58 152 197 
 32 31 193 
 83 188 187 
 174 66 44 
 89 18 56 
 36 175 6 
 132 198 199 
 58 197 136 
 135 8 200 
 94 201 74 
 135 133 9 
 59 106 171 
 202 5 203 
 83 195 84 
 39 142 102 
 143 102 142 
 191 22 204 
 39 41 205 
 77 205 41 
 125 128 178 
 170 131 59 
 39 205 141 
 186 163 162 
 45 47 118 
 101 118 47 
 79 182 206 
 62 56 18 
 112 114 207 
 208 168 45 
 209 141 205 
 118 208 45 
 109 90 181 
 55 181 90 
 36 210 175 
 109 181 167 
 211 212 213 
 107 165 98 
 214 187 156 
 186 156 187 
 158 215 159 
 68 181 216 
 55 216 181 
 96 98 165 
 77 50 217 
 218 217 50 
 91 123 189 
 186 162 219 
 73 92 126 
 135 200 184 
 220 200 8 
 202 203 204 
 176 104 105 
 115 21 26 
 176 221 162 
 214 222 187 
 177 49 223 
 70 139 27 
 64 66 224 
 64 224 146 
 225 41 157 
 127 27 139 
 89 46 140 
 226 159 215 
 161 6 175 
 63 69 227 
 177 227 69 
 111 194 228 
 220 229 200 
 22 192 124 
 230 213 212 
 226 215 150 
 148 150 215 
 161 163 231 
 63 232 14 
 176 105 233 
 63 234 232 
 40 184 200 
 186 188 163 
 211 228 194 
 151 150 149 
 211 133 212 
 132 212 133 
 7 203 5 
 200 229 157 
 176 210 104 
 111 228 88 
 202 21 117 
 214 156 155 
 235 206 182 
 96 84 195 
 28 236 8 
 220 8 236 
 23 84 165 
 70 72 185 
 230 212 199 
 132 199 212 
 176 175 210 
 80 179 231 
 138 137 178 
 235 233 105 
 75 74 201 
 29 5 117 
 202 117 5 
 237 238 239 
 111 9 194 
 218 17 19 
 143 142 240 
 86 88 228 
 177 223 227 
 151 60 241 
 97 193 31 
 28 234 236 
 63 242 234 
 40 102 184 
 151 241 243 
 68 166 181 
 62 17 50 
 218 19 120 
 244 245 154 
 172 154 245 
 91 196 47 
 77 217 205 
 209 205 217 
 227 223 229 
 132 134 246 
 247 248 238 
 58 60 152 
 151 152 60 
 36 100 131 
 247 238 249 
 237 249 238 
 235 35 250 
 73 34 92 
 247 197 248 
 33 78 129 
 143 246 134 
 81 251 105 
 235 105 251 
 135 184 134 
 64 146 252 
 145 252 146 
 186 219 154 
 211 194 133 
 135 9 8 
 83 72 188 
 235 182 35 
 12 253 103 
 160 159 26 
 115 26 159 
 76 254 245 
 80 163 188 
 153 149 255 
 202 204 21 
 22 21 204 
 191 203 2 
 4 2 203 
 256 124 192 
 81 196 206 
 76 34 254 
 143 198 246 
 170 210 131 
 36 131 210 
 121 19 257 
 16 257 19 
 143 258 198 
 191 204 203 
 235 251 206 
 67 128 44 
 79 206 259 
 81 206 251 
 132 246 198 
 42 129 78 
 237 239 130 
 101 171 106 
 12 260 253 
 119 136 261 
 247 261 136 
 68 93 166 
 214 169 144 
 43 189 108 
 113 262 201 
 145 93 15 
 13 15 93 
 7 180 203 
 4 203 180 
 225 223 51 
 42 44 128 
 263 257 168 
 16 168 257 
 67 173 178 
 264 248 255 
 67 178 128 
 177 190 57 
 49 51 223 
 191 183 192 
 256 192 183 
 244 154 219 
 112 144 169 
 80 188 72 
 55 57 216 
 116 164 243 
 226 243 164 
 113 201 114 
 170 82 104 
 172 245 254 
 116 241 265 
 33 129 92 
 186 154 156 
 70 185 139 
 75 254 34 
 147 166 93 
 172 262 155 
 96 222 144 
 177 69 190 
 214 144 222 
 218 50 17 
 170 104 210 
 153 255 248 
 116 265 117 
 115 159 164 
 226 164 159 
 113 155 262 
 187 222 195 
 73 266 74 
 95 74 266 
 162 221 219 
 138 178 173 
 161 231 267 
 235 250 233 
 244 233 250 
 179 267 231 
 83 185 72 
 121 268 130 
 237 130 268 
 151 243 150 
 226 150 243 
 80 231 163 
 160 26 38 
 20 38 26 
 52 126 137 
 125 137 126 
 220 227 229 
 75 201 262 
 153 197 152 
 225 51 41 
 121 120 19 
 220 242 227 
 91 189 259 
 214 155 169 
 61 265 241 
 76 245 250 
 244 250 245 
 40 200 157 
 77 41 51 
 176 233 221 
 112 207 193 
 32 193 207 
 63 227 242 
 264 238 248 
 95 266 54 
 52 54 266 
 76 250 35 
 225 157 229 
 123 108 189 
 109 48 108 
 43 108 48 
 33 35 182 
 94 114 201 
 174 224 66 
 73 126 266 
 52 266 126 
 263 168 208 
 111 88 10 
 161 267 6 
 61 100 265 
 29 265 100 
 7 6 267 
 153 248 197 
 113 169 155 
 247 136 197 
 61 241 60 
 79 259 189 
 119 208 118 
 147 224 167 
 174 167 224 
 29 117 265 
 91 259 196 
 244 221 233 
 96 195 222 
 7 267 180 
 179 180 267 
 109 167 48 
 174 48 167 
 225 229 223 
 147 146 224 
 220 236 242 
 234 242 236 
 263 261 249 
 247 249 261 
 12 11 260 
 116 243 241 
 172 254 262 
 263 268 257 
 206 196 259 
 170 171 82 
 101 82 171 
 121 257 268 
 244 219 221 
 263 249 268 
 237 268 249 
 143 240 258 
 263 208 261 
 75 262 254 
 119 261 208 
 57 190 216 
 68 216 190 
