TITLE      =  "2D FE Unstructured grid data" 
VARIABLES = "X", "Y", "U", "Dom" 
ZONE T="P1", F=FEPOINT, N= 271 E= 477  ET=TRIANGLE 
 5.257092 4.951127 10.208213 3
 5.213462 4.793371 10.006831 3
 5.330429 4.858052 10.188472 3
 5.151765 4.907310 10.059079 3
 4.623034 6.302894 10.925975 3
 4.483908 6.449684 10.933651 3
 4.452465 6.301439 10.753959 3
 3.757726 4.591319 8.349070 3
 3.841367 4.732700 8.574092 3
 3.696275 4.709718 8.406020 3
 4.723909 5.068506 9.792426 3
 4.847394 4.979242 9.826645 3
 4.890870 5.132880 10.023767 3
 5.017903 4.996035 10.013943 3
 3.940711 5.922763 9.863536 3
 3.775733 5.907977 9.683779 3
 3.906242 5.805687 9.711989 3
 4.596781 5.505511 10.102322 3
 4.767055 5.487215 10.254291 3
 4.696230 5.614021 10.310277 3
 4.550435 6.184982 10.735472 3
 5.056756 4.851300 9.908051 3
 5.088861 4.732314 9.821166 3
 5.222429 5.423650 10.646089 3
 5.284202 5.287165 10.571370 3
 5.358247 5.399813 10.758063 3
 4.243496 4.933706 9.177227 3
 4.234445 4.810615 9.045088 3
 4.356071 4.907642 9.263728 3
 4.682370 6.145089 10.827503 3
 4.738197 6.044947 10.783183 3
 4.770121 6.206210 10.976369 3
 3.989424 5.286408 9.275872 3
 4.150170 5.339636 9.489844 3
 4.049580 5.430021 9.479649 3
 4.102524 5.218718 9.321284 3
 4.390341 4.809024 9.199385 3
 4.844717 6.127686 10.972443 3
 3.894337 4.620393 8.514748 3
 5.087639 5.919766 11.007427 3
 5.172787 6.042550 11.215362 3
 5.027209 6.035408 11.062646 3
 4.741090 4.800401 9.541498 3
 4.777213 4.665328 9.442538 3
 4.865252 4.762175 9.627430 3
 4.639359 4.733263 9.372622 3
 3.406950 5.209372 8.616385 3
 3.306184 5.104462 8.410705 3
 3.421729 5.051481 8.473260 3
 4.634031 5.393753 10.027810 3
 5.146527 5.660914 10.807461 3
 5.281844 5.563485 10.845336 3
 5.260324 5.714407 10.974746 3
 3.965637 4.859202 8.824866 3
 4.098414 4.774844 8.873280 3
 4.116724 4.919291 9.036039 3
 3.629506 5.674319 9.303896 3
 3.675593 5.526574 9.202232 3
 3.741936 5.683527 9.425524 3
 3.789196 5.580353 9.369607 3
 5.128078 5.529068 10.657156 3
 3.945071 5.537083 9.482204 3
 3.889776 5.689489 9.579329 3
 5.427352 5.250156 10.677502 3
 4.403582 5.393932 9.797548 3
 4.367148 5.274304 9.641486 3
 4.506149 5.309174 9.815351 3
 4.519849 5.664965 10.184852 3
 4.478020 5.792209 10.270271 3
 4.405655 5.647001 10.052705 3
 4.358768 5.740221 10.099034 3
 3.285072 4.974949 8.260067 3
 4.725826 4.925068 9.650906 3
 3.420814 4.912316 8.333173 3
 3.522639 5.143044 8.665733 3
 3.803937 5.090874 8.894851 3
 3.644509 5.074558 8.719112 3
 3.738236 4.948034 8.686310 3
 5.452739 5.522282 10.975018 3
 3.754881 5.387010 9.141946 3
 3.830001 5.262227 9.092279 3
 3.897923 5.397285 9.295256 3
 4.633508 5.739126 10.372669 3
 4.783075 5.736701 10.519806 3
 3.989231 4.708849 8.698103 3
 3.189224 4.781227 7.970492 3
 3.283570 4.849749 8.133362 3
 3.133970 4.921449 8.055471 3
 5.307677 5.989727 11.297422 3
 5.244080 6.136095 11.380194 3
 4.800302 5.598439 10.398767 3
 3.818583 5.480961 9.299602 3
 4.974689 6.722596 11.697330 3
 4.848577 6.738701 11.587323 3
 4.914988 6.591507 11.506542 3
 4.793907 6.642322 11.436278 3
 4.559124 5.076210 9.635355 3
 4.616161 4.974397 9.590569 3
 4.886099 5.298410 10.184525 3
 4.771914 5.224289 9.996225 3
 4.928779 4.868985 9.797771 3
 3.519192 5.612889 9.132149 3
 3.519774 5.432137 8.951973 3
 4.613519 6.446199 11.059770 3
 4.440813 5.201459 9.642297 3
 3.306064 4.596165 7.902260 3
 3.447032 4.666956 8.114018 3
 3.290806 4.717952 8.008799 3
 3.381533 4.790601 8.172171 3
 4.882155 5.653976 10.536152 3
 5.004355 5.621849 10.626219 3
 4.936058 5.781611 10.717696 3
 5.055205 5.730065 10.785285 3
 4.168963 6.230496 10.399524 3
 4.156271 6.085233 10.241572 3
 4.261810 6.154975 10.416842 3
 3.482398 4.827260 8.309692 3
 5.162831 5.003466 10.166298 3
 4.650256 5.168060 9.818337 3
 5.338184 6.231318 11.569511 3
 5.399867 6.102345 11.502227 3
 5.459824 6.216411 11.676249 3
 3.565191 4.752255 8.317478 3
 5.135509 6.219526 11.355063 3
 5.055723 6.299394 11.355145 3
 4.986338 6.169107 11.155471 3
 4.955557 6.285827 11.241416 3
 5.396432 5.675292 11.071733 3
 5.523358 5.669412 11.192772 3
 5.057843 6.603064 11.660944 3
 5.322007 5.177429 10.499434 3
 4.774349 6.316844 11.091238 3
 5.106018 6.117599 11.223639 3
 5.280290 6.342507 11.622815 3
 5.411267 6.342228 11.753507 3
 5.295508 6.477823 11.773355 3
 5.156132 5.318573 10.474712 3
 4.417337 6.191537 10.608929 3
 4.965833 5.912179 10.878039 3
 4.420889 5.943147 10.364083 3
 4.356926 6.065837 10.422826 3
 4.294610 5.933435 10.228105 3
 4.228453 5.249140 9.477627 3
 4.223283 5.113678 9.336995 3
 4.090350 5.075854 9.166236 3
 4.772575 5.352796 10.125394 3
 4.897430 5.420352 10.317798 3
 4.607901 5.981206 10.589149 3
 4.605456 6.088699 10.694195 3
 5.577623 5.550125 11.127747 3
 3.613718 4.608540 8.222278 3
 3.522887 4.489528 8.012439 3
 4.009738 4.968693 8.978459 3
 3.616906 5.228161 8.845119 3
 3.632662 5.360464 8.993182 3
 3.724198 5.187801 8.912044 3
 5.004020 5.485520 10.489547 3
 5.105770 5.420438 10.526220 3
 3.798507 5.780425 9.579000 3
 5.020781 5.135246 10.156040 3
 5.531351 5.169324 10.700670 3
 5.576156 5.295096 10.871246 3
 4.979389 5.225710 10.205107 3
 3.749798 4.799947 8.549776 3
 3.652773 5.830866 9.483711 3
 4.303561 6.275100 10.578727 3
 4.349597 5.130523 9.480150 3
 5.219138 6.610251 11.829417 3
 5.149235 6.503205 11.652472 3
 3.672231 4.470662 8.142917 3
 4.836123 5.901148 10.737309 3
 3.554677 4.894423 8.449141 3
 3.533933 5.005734 8.539709 3
 4.771996 6.822196 11.594250 3
 4.921848 6.875056 11.796946 3
 5.126162 5.097726 10.223893 3
 4.504116 4.885536 9.389666 3
 4.514215 4.754536 9.268759 3
 4.186042 5.012258 9.198328 3
 5.261233 5.065129 10.326360 3
 5.372214 4.965160 10.337368 3
 5.429159 5.090853 10.520012 3
 4.701678 5.877624 10.579344 3
 5.233618 6.250854 11.484499 3
 4.888825 6.027974 10.916825 3
 5.669859 5.435611 11.105472 3
 5.545734 5.434110 10.979841 3
 4.593714 5.602470 10.196218 3
 4.246490 6.045128 10.291681 3
 3.947360 5.059838 9.007232 3
 3.918432 5.171042 9.089515 3
 5.479351 5.804839 11.284199 3
 5.482297 5.971089 11.453394 3
 5.375283 5.875870 11.251163 3
 5.038819 5.830047 10.868887 3
 4.932013 4.647442 9.579453 3
 4.982566 4.748600 9.731169 3
 4.449084 4.999966 9.449074 3
 5.466787 5.362625 10.829408 3
 4.498084 6.058089 10.556225 3
 5.267864 5.847190 11.115067 3
 5.149359 5.806612 10.955986 3
 4.701714 6.395284 11.097041 3
 3.398920 4.532316 7.931263 3
 3.077367 4.789127 7.866539 3
 5.351101 5.778658 11.129775 3
 5.193571 5.926731 11.120319 3
 3.649375 4.834450 8.483857 3
 3.166606 4.677914 7.844558 3
 4.350440 5.843766 10.194254 3
 3.173604 4.555604 7.729239 3
 4.274296 5.361598 9.635934 3
 4.689008 6.623161 11.312218 3
 4.802021 6.536401 11.338466 3
 3.875270 4.965647 8.840953 3
 4.314944 5.007007 9.321979 3
 4.692145 6.510069 11.202259 3
 4.818504 4.870011 9.688521 3
 4.203794 5.453638 9.657475 3
 4.104136 5.545857 9.650048 3
 3.296501 4.470175 7.766702 3
 4.620383 4.846562 9.466952 3
 4.650166 5.279795 9.929983 3
 4.212558 5.854231 10.066844 3
 4.248597 5.748077 9.996723 3
 4.038553 5.658641 9.697244 3
 4.464545 5.116072 9.580643 3
 3.624146 4.951439 8.575625 3
 5.089581 5.223879 10.313470 3
 5.208089 5.193843 10.401933 3
 4.517680 5.427602 9.945317 3
 2.980428 4.866797 7.847278 3
 4.598559 5.847157 10.445750 3
 4.526024 5.917530 10.443594 3
 3.193439 5.063548 8.257047 3
 4.460289 5.534797 9.995120 3
 4.314150 5.465457 9.779649 3
 4.337113 5.571017 9.908172 3
 4.021440 5.155866 9.177342 3
 5.175752 4.646007 9.821754 3
 5.515975 6.101072 11.617052 3
 3.713630 5.288313 9.001994 3
 3.834062 4.861106 8.695198 3
 4.008707 5.781964 9.790721 3
 5.018191 5.345380 10.363584 3
 4.097756 4.656532 8.754306 3
 3.510435 5.292639 8.803133 3
 5.054547 4.627533 9.682072 3
 4.712487 6.733693 11.446235 3
 5.209268 6.416811 11.626106 3
 4.546166 5.191502 9.737694 3
 5.102062 6.414493 11.516584 3
 5.008130 6.495294 11.503458 3
 5.298054 4.647369 9.945415 3
 4.169448 5.653909 9.823411 3
 4.894711 5.543684 10.438414 3
 3.422117 4.438757 7.860896 3
 3.371267 4.340522 7.711812 3
 4.566793 6.573065 11.139913 3
 4.085330 5.881739 9.967137 3
 4.059628 6.004992 10.064680 3
 4.123805 5.761951 9.885808 3
 4.901669 6.452595 11.354305 3
 4.228028 5.563161 9.791236 3
 4.799413 6.423173 11.222632 3
 4.168519 5.965186 10.133763 3
 4.984843 6.382586 11.367464 3
 4.284595 5.652598 9.937242 3
 5.170027 6.324827 11.494881 3
 4.880465 6.349662 11.230168 3
 4.866957 6.236947 11.103941 3
 1 2 3 
 4 2 1 
 5 6 7 
 8 9 10 
 11 12 13 
 14 13 12 
 15 16 17 
 18 19 20 
 5 7 21 
 2 22 23 
 24 25 26 
 27 28 29 
 30 31 32 
 33 34 35 
 36 34 33 
 29 28 37 
 32 31 38 
 39 9 8 
 4 22 2 
 40 41 42 
 43 44 45 
 46 44 43 
 47 48 49 
 18 50 19 
 51 52 53 
 54 55 56 
 24 26 52 
 57 58 59 
 60 59 58 
 61 52 51 
 62 63 60 
 64 26 25 
 65 66 67 
 68 69 70 
 69 71 70 
 72 49 48 
 11 73 12 
 72 74 49 
 47 49 75 
 76 77 78 
 79 52 26 
 80 81 82 
 33 82 81 
 83 20 84 
 54 85 55 
 86 87 88 
 89 90 41 
 20 91 84 
 62 60 92 
 93 94 95 
 96 95 94 
 11 97 98 
 83 69 68 
 99 100 13 
 11 13 100 
 14 12 101 
 57 102 58 
 103 58 102 
 5 104 6 
 105 67 66 
 106 107 108 
 109 108 107 
 72 88 87 
 110 111 112 
 113 112 111 
 114 115 116 
 109 107 117 
 14 4 118 
 11 119 97 
 120 121 122 
 107 123 117 
 11 98 73 
 124 125 126 
 127 126 125 
 79 128 52 
 53 52 128 
 79 129 128 
 93 95 130 
 64 25 131 
 90 121 120 
 5 32 132 
 5 30 32 
 124 133 90 
 134 135 136 
 24 137 25 
 138 21 7 
 40 42 139 
 140 141 142 
 143 36 144 
 145 144 36 
 19 146 147 
 148 31 149 
 30 149 31 
 80 92 58 
 79 150 129 
 151 107 152 
 14 22 4 
 54 56 153 
 154 75 77 
 90 133 41 
 80 58 155 
 76 156 77 
 154 77 156 
 89 121 90 
 157 158 61 
 159 17 16 
 60 58 92 
 14 160 13 
 62 82 35 
 33 35 82 
 64 161 162 
 99 13 163 
 51 113 111 
 164 10 9 
 24 52 61 
 57 59 165 
 159 165 59 
 138 116 141 
 138 166 116 
 143 144 167 
 99 147 146 
 143 167 66 
 168 130 169 
 157 61 111 
 151 170 8 
 103 155 58 
 171 112 139 
 151 123 107 
 61 51 111 
 172 173 74 
 174 94 175 
 14 118 176 
 177 37 178 
 177 29 37 
 145 153 56 
 124 126 133 
 145 56 179 
 180 181 182 
 171 183 84 
 5 21 30 
 24 61 158 
 159 59 63 
 124 90 184 
 64 131 182 
 28 56 55 
 28 27 56 
 42 126 185 
 186 187 162 
 83 68 188 
 189 142 141 
 110 84 91 
 76 190 191 
 76 191 81 
 192 193 194 
 89 194 193 
 112 195 139 
 45 196 197 
 171 31 183 
 177 98 198 
 97 198 98 
 64 182 161 
 60 63 59 
 79 26 199 
 83 84 183 
 140 200 141 
 45 197 101 
 148 183 31 
 53 201 202 
 5 132 203 
 107 204 152 
 14 101 22 
 86 88 205 
 186 150 187 
 192 206 128 
 40 207 41 
 164 78 208 
 106 108 209 
 151 152 170 
 89 193 121 
 38 185 126 
 45 44 196 
 89 201 194 
 171 84 112 
 110 112 84 
 64 162 199 
 71 69 210 
 106 209 211 
 172 74 117 
 79 199 187 
 140 210 69 
 65 212 66 
 145 190 153 
 89 207 201 
 96 213 214 
 76 215 190 
 77 75 173 
 216 198 167 
 217 214 213 
 54 9 85 
 123 10 208 
 151 10 123 
 33 81 191 
 177 198 29 
 49 74 173 
 101 12 218 
 219 220 35 
 106 211 221 
 138 200 21 
 177 178 222 
 76 78 215 
 62 35 220 
 223 50 67 
 93 175 94 
 180 182 131 
 45 101 218 
 138 7 166 
 89 41 207 
 224 225 210 
 62 226 63 
 53 206 201 
 198 227 167 
 77 228 78 
 62 92 82 
 159 16 165 
 229 230 137 
 67 50 231 
 232 205 88 
 42 41 133 
 19 50 146 
 168 169 136 
 25 137 230 
 46 222 178 
 83 188 20 
 148 233 183 
 192 194 206 
 148 200 234 
 140 234 200 
 72 235 88 
 65 236 237 
 238 237 236 
 145 239 190 
 23 240 2 
 122 121 241 
 192 128 129 
 54 153 215 
 190 215 153 
 80 242 81 
 76 81 156 
 99 146 100 
 223 100 146 
 164 243 78 
 244 63 226 
 229 137 245 
 106 204 107 
 246 55 85 
 47 75 247 
 154 247 75 
 78 228 208 
 42 185 139 
 196 248 197 
 23 197 248 
 96 94 249 
 49 173 75 
 136 169 250 
 159 63 17 
 171 185 31 
 83 233 69 
 97 119 251 
 38 31 185 
 53 128 206 
 62 220 226 
 64 199 26 
 252 169 253 
 148 234 233 
 162 187 199 
 254 2 240 
 140 69 234 
 54 243 9 
 68 236 188 
 255 226 220 
 103 247 155 
 154 155 247 
 73 218 12 
 42 133 126 
 244 17 63 
 40 139 195 
 18 188 236 
 219 35 34 
 224 210 142 
 180 1 181 
 130 253 169 
 23 248 240 
 33 239 36 
 143 34 36 
 53 202 51 
 229 160 176 
 174 249 94 
 229 176 230 
 105 251 67 
 223 67 251 
 14 176 160 
 19 147 256 
 257 152 204 
 39 85 9 
 245 137 158 
 257 221 258 
 217 213 259 
 244 260 15 
 261 15 260 
 180 230 176 
 255 262 226 
 99 163 245 
 106 221 204 
 257 204 221 
 79 187 150 
 138 141 200 
 33 191 239 
 164 208 10 
 151 8 10 
 216 144 179 
 40 202 207 
 201 207 202 
 18 20 188 
 223 119 100 
 11 100 119 
 6 104 259 
 217 259 104 
 200 149 21 
 172 123 208 
 19 91 20 
 171 139 185 
 157 147 245 
 99 245 147 
 244 226 262 
 96 214 95 
 71 210 225 
 72 87 74 
 109 74 87 
 172 117 123 
 229 245 163 
 263 95 214 
 201 206 194 
 72 48 235 
 143 212 34 
 219 34 212 
 148 149 200 
 216 167 144 
 180 176 118 
 219 264 220 
 157 111 256 
 110 256 111 
 105 66 167 
 216 27 29 
 114 116 166 
 189 141 116 
 255 220 264 
 216 179 27 
 5 203 104 
 83 183 233 
 96 249 213 
 68 70 236 
 3 181 1 
 189 116 115 
 193 241 121 
 113 195 112 
 105 227 251 
 97 251 227 
 157 245 158 
 190 239 191 
 86 205 209 
 217 265 214 
 224 142 266 
 189 266 142 
 217 203 265 
 109 117 74 
 238 236 70 
 86 108 87 
 109 87 108 
 224 262 225 
 263 253 95 
 80 82 92 
 223 146 50 
 130 95 253 
 154 242 155 
 18 231 50 
 145 179 144 
 134 136 250 
 86 209 108 
 229 163 160 
 252 253 267 
 65 67 231 
 23 22 197 
 101 197 22 
 78 243 215 
 261 260 266 
 224 266 260 
 71 268 70 
 255 225 262 
 145 36 239 
 97 227 198 
 25 230 131 
 180 131 230 
 122 135 120 
 134 120 135 
 224 260 262 
 252 125 269 
 80 155 242 
 252 267 125 
 56 27 179 
 172 208 228 
 65 231 236 
 18 236 231 
 223 251 119 
 216 29 198 
 219 237 264 
 238 264 237 
 244 15 17 
 261 266 115 
 24 158 137 
 30 21 149 
 244 262 260 
 252 250 169 
 143 66 212 
 154 156 242 
 65 237 212 
 219 212 237 
 164 9 243 
 71 225 268 
 73 98 222 
 177 222 98 
 13 160 163 
 127 267 270 
 263 270 267 
 263 267 253 
 238 70 268 
 54 215 243 
 110 91 256 
 19 256 91 
 157 256 147 
 113 51 202 
 124 184 269 
 127 125 267 
 140 142 210 
 132 265 203 
 81 242 156 
 105 167 227 
 217 104 203 
 127 271 126 
 38 126 271 
 132 270 265 
 73 43 218 
 45 218 43 
 40 195 202 
 113 202 195 
 189 115 266 
 134 250 269 
 263 214 265 
 134 269 184 
 252 269 250 
 124 269 125 
 69 233 234 
 255 268 225 
 180 118 1 
 263 265 270 
 172 228 173 
 77 173 228 
 132 271 270 
 255 264 268 
 4 1 118 
 132 32 271 
 134 184 120 
 238 268 264 
 127 270 271 
 46 43 222 
 73 222 43 
 90 120 184 
 38 271 32 
