TITLE      =  "2D FE Unstructured grid data" 
VARIABLES = "X", "Y", "U", "Dom" 
ZONE T="P1", F=FEPOINT, N= 434 E= 789  ET=TRIANGLE 
 9.189115 7.268899 16.458004 9
 9.026397 7.154194 16.180569 9
 9.203280 7.127573 16.330833 9
 9.066470 7.300193 16.366648 9
 8.863484 7.510697 16.374153 9
 8.787069 7.324305 16.111374 9
 8.909194 7.389845 16.299025 9
 8.739079 7.475795 16.214867 9
 8.098322 8.315125 16.413443 9
 8.191681 8.238590 16.430267 9
 8.229992 8.408799 16.638802 9
 9.295344 7.235176 16.530502 9
 9.319554 7.073822 16.393366 9
 9.437507 7.231271 16.668751 9
 8.284565 8.284565 16.569134 9
 8.860770 7.173469 16.034214 9
 8.949093 7.276841 16.225937 9
 8.057467 7.442184 15.499644 9
 8.013730 7.613206 15.626930 9
 7.937085 7.511055 15.448133 9
 7.670910 7.193274 14.864171 9
 7.707360 7.080917 14.788265 9
 7.787960 7.192854 14.980795 9
 7.842743 7.098644 14.941376 9
 8.872752 8.273797 17.146547 9
 8.712487 8.220457 16.932932 9
 8.827452 8.119555 16.947001 9
 8.801050 9.198662 17.999756 9
 8.869520 9.071326 17.940876 9
 8.952404 9.183449 18.135866 9
 8.229831 7.968397 16.198225 9
 8.261547 7.818151 16.079687 9
 8.329817 7.931155 16.260960 9
 7.580945 7.964810 15.545755 9
 7.718913 8.041488 15.760402 9
 7.572391 8.086435 15.658822 9
 8.660706 9.433530 18.094259 9
 8.734312 9.573100 18.307447 9
 8.588496 9.554889 18.143406 9
 8.139606 7.515463 15.655058 9
 9.209220 8.478637 17.687866 9
 9.133777 8.313864 17.447639 9
 9.279152 8.331158 17.610304 9
 8.383783 8.474099 16.857895 9
 8.366885 8.338261 16.705149 9
 8.402851 7.835985 16.238825 9
 8.328498 8.202458 16.530968 9
 8.373713 7.688981 16.062700 9
 8.532495 9.432484 17.964987 9
 7.695690 7.911520 15.607208 9
 10.000000 8.333333 18.333332 9
 10.000000 8.472222 18.472221 9
 9.833633 8.423933 18.257565 9
 8.964221 8.030745 16.994967 9
 9.014147 8.175214 17.189360 9
 8.417400 9.362967 17.780386 9
 8.413969 9.205578 17.619562 9
 8.555108 9.297521 17.852646 9
 8.544679 9.132903 17.677618 9
 8.299604 8.578965 16.878582 9
 8.150883 8.586969 16.737858 9
 10.000000 8.194445 18.194445 9
 9.872749 8.260237 18.132977 9
 9.866494 8.090914 17.957409 9
 8.781828 8.801836 17.583693 9
 8.649385 8.738236 17.387648 9
 8.818125 8.659156 17.477295 9
 9.130144 7.937394 17.067528 9
 9.225966 7.866392 17.092344 9
 9.220140 8.040486 17.260616 9
 9.688526 9.331212 19.019739 9
 9.532619 9.391139 18.923761 9
 9.557771 9.270160 18.827940 9
 8.330523 7.491629 15.822141 9
 8.214594 7.419095 15.633682 9
 8.358824 7.344438 15.703251 9
 8.425339 7.441966 15.867300 9
 8.049421 8.457720 16.507147 9
 9.319926 7.938755 17.258682 9
 8.244508 8.745080 16.989595 9
 10.000000 8.611111 18.611111 9
 9.850028 8.713051 18.563066 9
 9.900642 8.541667 18.442322 9
 8.611111 10.000000 18.611111 9
 8.541667 9.900642 18.442308 9
 8.713051 9.850028 18.563099 9
 9.758457 7.177536 16.935980 9
 9.807975 7.302424 17.110403 9
 9.676048 7.282984 16.959036 9
 8.099681 7.753994 15.853672 9
 7.956195 7.781517 15.737702 9
 8.381642 9.668290 18.049931 9
 8.440768 9.513515 17.954309 9
 8.504643 9.684635 18.189301 9
 8.392323 7.113672 15.505980 9
 8.491088 7.224000 15.715082 9
 8.321747 7.212061 15.533799 9
 9.441229 7.448674 16.889883 9
 9.530840 7.331017 16.861849 9
 9.560238 7.471699 17.031910 9
 9.642888 7.392735 17.035622 9
 9.660365 8.387761 18.048128 9
 9.581254 8.240078 17.821329 9
 9.731511 8.276791 18.008289 9
 9.166667 10.000000 19.166668 9
 9.060560 9.875159 18.935717 9
 9.228572 9.881005 19.109596 9
 10.000000 9.166667 19.166668 9
 9.881005 9.228572 19.109562 9
 9.878537 9.047251 18.925791 9
 9.099599 8.461967 17.561583 9
 8.133303 7.330774 15.464063 9
 9.624427 9.482075 19.106510 9
 9.421269 7.660341 17.081596 9
 9.493247 7.573498 17.066746 9
 9.560072 7.710315 17.270380 9
 9.420495 8.666971 18.087488 9
 9.306875 8.757733 18.064619 9
 9.300120 8.605878 17.905998 9
 7.548998 7.737122 15.286115 9
 7.428339 7.792615 15.220955 9
 7.404126 7.691044 15.095168 9
 8.795718 8.419788 17.215506 9
 8.723754 8.332795 17.056547 9
 9.789640 8.569086 18.358719 9
 9.690856 8.508653 18.199495 9
 8.204013 8.135688 16.339691 9
 7.430632 7.238840 14.669456 9
 7.552121 7.134439 14.686541 9
 7.569978 7.274607 14.844574 9
 9.730481 9.446910 19.177402 9
 9.731496 9.595981 19.327467 9
 9.083322 8.761953 17.845293 9
 9.034164 8.900838 17.935020 9
 8.968506 8.822564 17.791088 9
 9.600762 7.588399 17.189154 9
 9.609865 8.588952 18.198828 9
 9.558648 8.718589 18.277235 9
 9.508277 8.578885 18.087160 9
 9.355014 8.099744 17.454763 9
 8.916683 8.432035 17.348734 9
 7.793717 7.009913 14.803611 9
 9.808538 9.510171 19.318699 9
 8.654994 9.188523 17.843548 9
 9.659810 9.172133 18.831957 9
 9.140837 8.902877 18.043732 9
 9.381773 7.344525 16.726284 9
 7.547637 7.627882 15.175513 9
 8.456162 8.111847 16.568010 9
 8.573744 8.175099 16.748831 9
 8.469419 8.267972 16.737387 9
 9.440724 8.011049 17.451767 9
 9.875747 7.204134 17.079880 9
 9.590465 9.587537 19.178009 9
 10.000000 8.750000 18.750000 9
 8.750000 10.000000 18.750000 9
 7.669065 8.139335 15.808412 9
 9.857409 9.655199 19.512608 9
 9.706584 9.735977 19.442570 9
 9.492661 8.865435 18.358101 9
 9.436858 9.008142 18.445009 9
 9.380994 8.853726 18.234732 9
 8.165002 7.887933 16.052933 9
 9.803100 9.803100 19.606203 9
 8.747341 7.151793 15.899115 9
 7.693719 7.424534 15.118242 9
 7.667307 7.567999 15.235296 9
 7.550650 7.502038 15.052686 9
 8.568278 9.788975 18.357271 9
 8.410002 9.835957 18.245979 9
 8.580176 8.027264 16.607439 9
 9.036724 9.089385 18.126135 9
 10.000000 7.638889 17.638889 9
 10.000000 7.777778 17.777779 9
 9.844862 7.724136 17.568991 9
 8.218075 7.644967 15.863027 9
 9.905751 7.569445 17.475178 9
 9.505859 9.805383 19.311245 9
 9.573610 9.708761 19.282354 9
 9.645881 9.861273 19.507160 9
 8.545636 7.859164 16.404783 9
 8.439276 7.975345 16.414614 9
 8.943639 9.813982 18.757622 9
 9.063405 9.701385 18.764795 9
 8.789272 9.702189 18.491470 9
 8.879976 9.577625 18.457624 9
 8.928077 9.695581 18.623671 9
 9.348514 8.469637 17.818161 9
 9.001785 8.516606 17.518391 9
 8.965353 8.661506 17.626871 9
 8.903607 8.562360 17.465977 9
 9.085503 8.581209 17.666718 9
 9.039663 7.817400 16.857052 9
 9.031474 7.947983 16.979448 9
 8.387732 8.693430 17.081169 9
 9.294868 8.933568 18.228472 9
 9.322405 9.700066 19.022486 9
 9.356080 9.550115 18.906225 9
 9.444659 9.701771 19.146418 9
 9.480726 9.589083 19.069807 9
 8.688490 8.584172 17.272684 9
 9.412123 8.248993 17.661102 9
 9.472584 8.137895 17.610458 9
 8.678230 9.297966 17.976231 9
 9.675336 8.168266 17.843603 9
 8.677230 8.118213 16.795448 9
 8.641857 7.558207 16.200050 9
 8.648011 7.383770 16.031778 9
 9.270805 8.205359 17.476151 9
 9.199769 8.809722 18.009510 9
 9.189078 8.646520 17.835609 9
 9.042658 7.419219 16.461864 9
 9.148010 7.811317 16.959305 9
 8.535125 7.462648 15.997766 9
 8.980009 8.994673 17.974697 9
 7.720278 7.311679 15.031943 9
 7.588938 7.384161 14.973090 9
 8.880564 9.289346 18.169933 9
 9.650190 9.662862 19.313057 9
 9.773701 8.182172 17.955883 9
 8.715010 9.002016 17.717054 9
 8.869476 8.919353 17.788849 9
 8.483023 7.750613 16.233622 9
 9.131266 9.788682 18.919962 9
 9.786017 9.135469 18.921480 9
 9.599318 7.152754 16.752071 9
 9.444445 10.000000 19.444445 9
 9.305555 10.000000 19.305555 9
 9.375769 9.846493 19.222256 9
 10.000000 9.305555 19.305555 9
 10.000000 9.444445 19.444445 9
 9.847774 9.376101 19.223864 9
 9.579082 8.071854 17.650938 9
 7.923119 8.516538 16.439657 9
 7.902009 8.402747 16.304760 9
 8.472222 10.000000 18.472221 9
 9.150931 8.167719 17.318642 9
 9.419034 8.375373 17.794415 9
 7.995249 8.344823 16.340086 9
 9.189544 9.629596 18.819143 9
 9.243043 9.770309 19.013361 9
 8.505263 8.750494 17.255777 9
 8.535817 8.623773 17.159607 9
 8.997957 8.295401 17.293364 9
 8.395918 8.841307 17.237246 9
 8.419946 8.576487 16.996443 9
 7.924693 7.911226 15.835916 9
 8.045691 7.919219 15.964904 9
 9.404091 8.558254 17.962357 9
 10.000000 7.361111 17.361111 9
 9.884402 7.430390 17.314793 9
 9.916790 7.300453 17.217255 9
 8.654115 8.866799 17.520941 9
 9.431934 8.772491 18.204435 9
 8.455243 9.059108 17.514372 9
 8.492793 8.512167 17.004967 9
 9.121969 9.285225 18.407232 9
 9.221124 9.180266 18.401405 9
 9.282174 9.297025 18.579214 9
 8.157418 8.042859 16.200272 9
 9.791536 7.574777 17.366316 9
 9.752471 7.414346 17.166819 9
 9.680796 7.517345 17.198126 9
 9.527425 8.347806 17.875217 9
 9.512856 9.909224 19.422083 9
 9.913005 9.513889 19.426897 9
 8.717513 8.021095 16.738596 9
 7.994339 7.206226 15.200553 9
 8.021855 7.314355 15.336203 9
 7.888251 7.288100 15.176336 9
 7.942094 7.391339 15.333424 9
 8.315578 8.057897 16.373484 9
 8.654727 9.690136 18.344873 9
 10.000000 7.500000 17.500000 9
 8.426731 7.554425 15.981156 9
 8.538711 7.638179 16.176889 9
 9.369934 9.169523 18.539478 9
 9.507711 9.150927 18.658636 9
 9.407161 9.290156 18.697325 9
 9.213453 9.470921 18.684399 9
 8.755107 8.897501 17.652637 9
 9.722222 10.000000 19.722221 9
 9.583333 10.000000 19.583332 9
 10.000000 9.583333 19.583332 9
 10.000000 9.722222 19.722221 9
 8.884953 8.758950 17.643927 9
 7.559846 7.847754 15.407590 9
 8.192064 7.196077 15.388122 9
 8.104674 7.104176 15.208840 9
 8.259361 7.106859 15.366212 9
 7.894087 7.659541 15.553617 9
 9.697988 7.781382 17.479366 9
 9.697448 7.657166 17.354614 9
 8.844609 9.791304 18.635920 9
 8.541244 8.860346 17.401615 9
 8.641073 7.230170 15.871233 9
 7.806349 7.866779 15.673118 9
 7.800468 7.735221 15.535677 9
 8.117773 7.631908 15.749669 9
 10.000000 8.055555 18.055555 9
 7.827438 7.419106 15.246540 9
 9.255507 7.360882 16.616371 9
 7.754587 7.508244 15.262811 9
 9.884976 7.874085 17.759062 9
 7.894273 7.177075 15.071337 9
 8.681143 7.679514 16.360643 9
 9.089998 9.179560 18.269587 9
 8.590138 7.746810 16.336954 9
 9.027778 10.000000 19.027779 9
 10.000000 9.027778 19.027779 9
 8.781221 9.350517 18.131762 9
 9.001717 9.294336 18.296066 9
 8.901231 9.415819 18.317072 9
 8.789835 9.467961 18.257818 9
 9.084099 7.575365 16.659456 9
 9.182749 7.480721 16.663456 9
 9.200134 7.619064 16.819178 9
 8.846429 7.983572 16.830002 9
 7.987757 8.241926 16.229681 9
 8.092755 8.164125 16.256880 9
 8.585171 8.996217 17.581419 9
 8.051931 8.055278 16.107197 9
 9.719251 9.037647 18.756905 9
 9.592237 9.045720 18.637968 9
 9.200950 8.995839 18.196802 9
 9.793027 7.973966 17.766987 9
 9.711129 8.070436 17.781553 9
 9.649418 7.925094 17.574516 9
 7.681553 7.796613 15.478159 9
 9.774055 7.855732 17.629787 9
 9.067988 9.416265 18.484272 9
 9.045720 9.592237 18.637981 9
 9.700743 8.660844 18.361589 9
 9.695756 8.787876 18.483627 9
 8.780966 7.599359 16.380318 9
 9.195999 9.364137 18.560156 9
 9.815688 8.941504 18.757191 9
 8.568451 7.303868 15.872316 9
 8.475490 7.356688 15.832164 9
 9.288770 9.063309 18.352104 9
 9.562283 8.942449 18.504740 9
 8.971289 7.542330 16.513611 9
 9.461425 7.753967 17.215376 9
 9.411857 9.411857 18.823723 9
 9.486769 9.490499 18.977295 9
 8.587319 8.288657 16.875969 9
 8.969739 9.506767 18.476538 9
 9.032669 8.395570 17.428240 9
 9.360974 7.795764 17.156738 9
 9.230308 7.740407 16.970701 9
 7.830132 7.981082 15.811215 9
 8.505053 8.391668 16.896727 9
 8.798096 8.528203 17.326303 9
 9.279855 7.560593 16.840429 9
 8.243887 7.530795 15.774673 9
 10.000000 7.916667 17.916668 9
 8.938119 7.904119 16.842228 9
 10.000000 10.000000 20.000000 9
 9.861111 10.000000 19.861111 9
 9.892176 9.892176 19.784363 9
 10.000000 9.861111 19.861111 9
 9.113083 9.518191 18.631304 9
 8.702957 8.452410 17.155388 9
 9.895024 8.848654 18.743681 9
 8.849010 9.894740 18.743753 9
 8.816823 7.728460 16.545277 9
 8.696080 7.813788 16.509850 9
 8.830438 7.855295 16.685720 9
 8.316641 7.582819 15.899452 9
 9.305600 9.407574 18.713194 9
 7.945772 8.015533 15.961303 9
 9.772626 9.248697 19.021326 9
 7.452387 7.587508 15.039890 9
 8.603163 8.493831 17.096989 9
 9.085225 8.050256 17.135460 9
 7.778971 8.259164 16.038141 9
 7.803555 8.367072 16.170641 9
 7.660402 8.315230 15.975634 9
 9.786070 8.846450 18.632542 9
 7.583470 6.996770 14.580232 9
 9.784898 9.911309 19.696201 9
 9.908722 9.780123 19.688837 9
 9.170499 9.091424 18.261950 9
 8.621593 8.387638 17.009243 9
 8.896052 7.641379 16.537434 9
 9.003117 7.679253 16.682367 9
 8.920702 7.770984 16.691677 9
 7.842809 7.549614 15.392409 9
 9.680498 8.920775 18.601269 9
 7.491128 7.422709 14.913831 9
 7.413948 7.496979 14.910926 9
 7.358154 7.360455 14.718595 9
 10.000000 8.888889 18.888889 9
 8.888889 10.000000 18.888889 9
 8.731964 9.111744 17.843729 9
 8.660126 7.930956 16.591074 9
 7.471661 7.326222 14.797873 9
 9.309827 7.662305 16.972116 9
 9.319504 7.459493 16.778992 9
 8.467096 8.941441 17.408552 9
 7.307018 7.490772 14.797803 9
 8.757175 7.928904 16.686077 9
 9.113971 7.694994 16.808952 9
 9.473185 8.467130 17.940313 9
 7.713061 6.929952 14.643007 9
 7.669476 7.682158 15.351622 9
 9.534204 7.948786 17.482983 9
 9.605901 7.830323 17.436218 9
 8.104228 7.239747 15.343961 9
 8.225373 7.289495 15.514856 9
 7.773861 7.628350 15.402205 9
 9.598125 8.847374 18.445503 9
 9.147300 7.365983 16.513277 9
 9.583376 8.473415 18.056791 9
 9.503384 7.849445 17.352818 9
 9.414783 7.904535 17.319307 9
 7.968060 8.127023 16.095081 9
 7.958073 7.099554 15.057622 9
 7.797597 8.493773 16.291380 9
 8.642211 9.086759 17.728992 9
 7.763533 8.158393 15.921923 9
 7.846719 8.090850 15.937563 9
 9.907170 7.983811 17.890999 9
 7.688800 8.220469 15.909278 9
 9.377488 7.560817 16.938301 9
 8.953975 9.916777 18.870760 9
 9.918360 8.952032 18.870382 9
 10.000000 7.222222 17.222221 9
 9.095088 8.995237 18.090349 9
 7.575780 8.206882 15.782660 9
 7.889706 8.301809 16.191517 9
 7.895785 7.002352 14.898128 9
 7.870694 8.195121 16.065811 9
 7.343606 7.591983 14.935592 9
 1 2 3 
 4 2 1 
 5 6 7 
 8 6 5 
 9 10 11 
 12 13 14 
 10 15 11 
 16 17 6 
 18 19 20 
 21 22 23 
 24 23 22 
 25 26 27 
 28 29 30 
 31 32 33 
 34 35 36 
 37 38 39 
 40 19 18 
 41 42 43 
 44 11 45 
 46 33 32 
 47 15 10 
 45 11 15 
 48 46 32 
 37 39 49 
 50 35 34 
 51 52 53 
 54 55 27 
 25 27 55 
 56 57 58 
 59 58 57 
 60 61 11 
 62 63 64 
 65 66 67 
 68 69 70 
 71 72 73 
 74 75 76 
 77 74 76 
 78 11 61 
 69 79 70 
 60 80 61 
 81 82 83 
 84 85 86 
 87 88 89 
 90 91 19 
 92 93 94 
 39 94 93 
 95 96 97 
 98 99 100 
 101 100 99 
 102 103 104 
 105 106 107 
 108 109 110 
 41 111 42 
 112 75 18 
 71 113 72 
 114 115 116 
 117 118 119 
 120 121 122 
 25 123 124 
 25 124 26 
 125 126 53 
 127 47 10 
 128 129 130 
 113 131 132 
 76 97 96 
 7 6 17 
 133 134 135 
 102 53 126 
 136 116 115 
 137 138 139 
 139 138 117 
 79 140 70 
 25 141 123 
 56 58 49 
 24 22 142 
 3 13 12 
 143 132 131 
 59 144 58 
 71 73 145 
 133 146 134 
 98 147 99 
 120 122 148 
 149 150 151 
 79 152 140 
 87 153 88 
 113 132 154 
 81 155 82 
 156 84 86 
 157 36 35 
 60 11 44 
 158 159 132 
 78 9 11 
 160 161 162 
 31 163 32 
 164 159 158 
 16 6 165 
 166 167 168 
 169 170 94 
 18 75 40 
 149 171 150 
 30 29 172 
 92 94 170 
 173 174 175 
 48 32 176 
 173 175 177 
 178 179 180 
 180 179 159 
 181 182 46 
 183 184 106 
 185 186 187 
 41 188 119 
 189 190 191 
 192 190 189 
 193 68 194 
 60 195 80 
 196 162 161 
 197 198 199 
 200 199 198 
 71 131 113 
 201 67 66 
 202 140 203 
 204 37 58 
 103 205 104 
 171 206 150 
 58 37 49 
 8 207 208 
 202 209 140 
 118 210 211 
 7 17 212 
 4 212 17 
 193 213 68 
 214 208 207 
 21 129 22 
 215 172 29 
 149 151 47 
 130 216 217 
 133 211 210 
 28 30 218 
 219 154 132 
 220 64 63 
 221 222 29 
 181 46 223 
 48 223 46 
 133 135 190 
 125 83 82 
 169 86 85 
 39 93 49 
 224 107 106 
 225 110 109 
 125 53 83 
 169 85 170 
 196 210 118 
 21 216 130 
 99 14 226 
 227 228 229 
 230 231 232 
 233 103 203 
 202 203 103 
 234 235 78 
 236 170 85 
 52 83 53 
 101 99 89 
 51 53 63 
 224 106 184 
 237 42 55 
 26 206 27 
 202 238 43 
 235 239 78 
 224 240 241 
 242 195 243 
 224 184 240 
 196 118 162 
 25 244 141 
 209 42 237 
 43 42 209 
 80 195 245 
 195 246 243 
 247 91 248 
 90 248 91 
 119 188 249 
 178 229 199 
 197 199 229 
 250 251 252 
 65 253 66 
 117 254 118 
 59 57 255 
 60 44 246 
 256 246 44 
 257 258 259 
 248 163 260 
 261 262 251 
 102 104 53 
 261 263 262 
 102 264 103 
 227 229 265 
 231 266 232 
 267 27 206 
 166 168 217 
 268 269 270 
 271 270 269 
 127 272 47 
 261 177 175 
 185 38 186 
 169 273 86 
 185 86 273 
 250 274 251 
 48 275 276 
 277 278 279 
 73 279 278 
 280 198 240 
 197 240 198 
 90 176 32 
 221 281 222 
 202 103 264 
 282 283 180 
 284 285 158 
 43 238 188 
 65 286 222 
 135 222 286 
 120 287 121 
 133 190 192 
 288 289 290 
 19 91 291 
 118 211 119 
 196 146 210 
 191 190 67 
 233 205 103 
 292 293 175 
 261 175 293 
 185 187 294 
 253 295 66 
 295 242 66 
 296 165 6 
 247 297 91 
 298 91 297 
 90 19 299 
 300 62 64 
 50 34 287 
 21 130 129 
 271 301 270 
 3 12 1 
 302 1 12 
 55 42 244 
 31 260 163 
 214 276 275 
 166 303 167 
 88 262 89 
 41 211 192 
 174 304 175 
 268 270 305 
 41 43 188 
 306 276 207 
 214 207 276 
 257 307 258 
 306 308 276 
 39 38 273 
 105 309 106 
 310 108 110 
 202 43 209 
 99 147 14 
 28 311 204 
 237 70 209 
 140 209 70 
 56 49 93 
 28 204 144 
 257 312 307 
 30 307 312 
 313 186 314 
 178 265 229 
 143 232 266 
 315 316 317 
 48 276 223 
 302 12 147 
 40 299 19 
 88 252 251 
 267 318 27 
 267 206 171 
 319 320 9 
 221 321 253 
 133 210 146 
 181 171 182 
 322 248 260 
 225 145 323 
 324 323 145 
 196 325 146 
 326 327 328 
 233 328 327 
 78 239 9 
 41 119 211 
 50 287 329 
 292 175 330 
 257 331 312 
 313 312 331 
 332 187 186 
 125 82 333 
 334 333 82 
 8 335 207 
 280 331 336 
 337 110 323 
 326 64 327 
 220 327 64 
 101 89 262 
 137 333 138 
 214 338 208 
 215 29 222 
 214 339 338 
 277 340 161 
 196 161 340 
 160 341 161 
 7 212 342 
 257 336 331 
 114 116 343 
 277 161 278 
 324 278 161 
 344 345 198 
 220 104 205 
 319 9 239 
 166 217 216 
 344 279 72 
 73 72 279 
 257 259 336 
 215 222 134 
 228 107 229 
 230 232 109 
 277 259 258 
 183 187 184 
 26 124 346 
 284 158 266 
 283 265 180 
 332 186 347 
 99 226 89 
 348 141 244 
 79 69 349 
 350 349 69 
 313 347 186 
 50 297 351 
 256 44 352 
 135 134 222 
 191 353 141 
 225 323 110 
 354 317 316 
 277 279 259 
 143 266 158 
 178 180 265 
 76 96 339 
 50 351 35 
 67 190 286 
 40 75 355 
 31 272 260 
 127 260 272 
 123 141 353 
 174 356 304 
 193 194 357 
 358 359 360 
 358 360 361 
 143 131 232 
 71 232 131 
 7 342 5 
 242 245 195 
 280 362 331 
 197 241 240 
 201 363 353 
 155 364 82 
 156 86 365 
 233 203 152 
 140 152 203 
 4 17 2 
 16 2 17 
 41 192 111 
 8 208 6 
 306 207 335 
 40 176 299 
 306 366 367 
 368 367 366 
 332 240 184 
 48 176 369 
 73 278 145 
 324 145 278 
 200 198 345 
 334 138 333 
 324 161 341 
 344 198 370 
 54 27 318 
 120 329 287 
 133 192 211 
 247 248 371 
 322 371 248 
 296 6 208 
 149 272 182 
 197 229 241 
 71 372 232 
 348 42 111 
 40 355 176 
 62 51 63 
 175 304 330 
 271 20 301 
 373 148 122 
 201 243 374 
 186 38 314 
 30 312 218 
 90 299 176 
 237 55 375 
 313 331 347 
 376 377 378 
 185 294 86 
 334 82 379 
 65 281 253 
 221 253 281 
 22 129 380 
 282 180 381 
 164 381 180 
 164 158 382 
 285 382 158 
 383 258 307 
 228 105 107 
 108 230 109 
 26 346 150 
 384 346 124 
 201 374 363 
 385 386 387 
 344 370 279 
 259 279 370 
 90 163 248 
 296 338 96 
 219 132 159 
 54 375 55 
 242 295 245 
 87 89 226 
 185 273 38 
 76 339 77 
 256 374 243 
 388 301 20 
 19 291 20 
 388 20 291 
 337 323 389 
 390 391 392 
 155 393 364 
 394 156 365 
 280 370 198 
 315 386 342 
 164 180 159 
 143 158 132 
 315 212 316 
 219 159 179 
 169 94 273 
 39 273 94 
 68 70 375 
 221 29 395 
 28 395 29 
 125 333 126 
 137 126 333 
 385 387 366 
 272 33 182 
 117 119 249 
 256 243 246 
 181 396 171 
 90 32 163 
 128 130 397 
 253 321 295 
 37 204 311 
 298 291 91 
 114 349 398 
 350 398 349 
 302 399 316 
 136 293 116 
 292 116 293 
 151 352 45 
 71 145 372 
 400 245 295 
 354 316 399 
 225 372 145 
 322 260 320 
 127 320 260 
 48 369 275 
 401 392 391 
 54 318 357 
 368 357 318 
 306 367 308 
 332 362 240 
 280 240 362 
 149 182 171 
 368 402 367 
 326 328 330 
 292 330 328 
 151 346 352 
 25 55 244 
 315 403 386 
 181 367 396 
 237 375 70 
 373 391 168 
 390 168 391 
 315 317 403 
 267 402 318 
 404 249 188 
 22 380 405 
 167 406 148 
 267 171 396 
 191 67 353 
 233 407 328 
 298 329 406 
 313 314 311 
 37 311 314 
 324 389 323 
 44 45 352 
 229 107 241 
 232 372 109 
 334 379 389 
 337 389 379 
 256 352 374 
 384 374 352 
 149 47 272 
 37 314 38 
 292 328 408 
 112 409 410 
 220 63 104 
 53 104 63 
 113 154 345 
 313 311 218 
 298 406 411 
 201 353 67 
 334 389 412 
 74 355 75 
 334 412 138 
 118 254 162 
 201 66 243 
 390 217 168 
 261 251 177 
 274 177 251 
 212 413 316 
 102 414 264 
 298 297 329 
 50 329 297 
 183 294 187 
 59 255 321 
 400 321 255 
 415 416 349 
 160 254 138 
 117 138 254 
 82 364 379 
 86 294 365 
 384 352 346 
 28 218 311 
 332 347 362 
 331 362 347 
 367 402 396 
 288 410 409 
 415 349 343 
 136 100 263 
 233 327 205 
 68 375 194 
 319 417 320 
 322 320 417 
 68 213 69 
 166 216 301 
 270 301 216 
 74 275 369 
 277 258 340 
 60 246 195 
 52 81 83 
 84 236 85 
 79 349 416 
 404 264 414 
 390 392 397 
 400 295 321 
 8 5 335 
 324 341 389 
 65 67 286 
 28 144 395 
 167 148 168 
 233 152 407 
 268 418 289 
 160 138 412 
 58 144 204 
 242 243 66 
 235 419 377 
 88 251 262 
 136 263 293 
 261 293 263 
 26 150 206 
 151 150 346 
 313 218 312 
 101 263 100 
 114 343 349 
 79 416 152 
 383 340 258 
 59 420 144 
 328 407 408 
 274 173 177 
 65 222 281 
 157 35 421 
 422 421 35 
 12 14 147 
 181 308 367 
 326 304 423 
 356 423 304 
 348 244 42 
 315 342 212 
 113 345 72 
 271 18 20 
 268 289 409 
 288 409 289 
 135 286 190 
 356 300 423 
 359 282 381 
 285 361 382 
 300 64 423 
 415 408 407 
 120 148 406 
 326 423 64 
 385 342 386 
 214 77 339 
 167 303 411 
 388 411 303 
 123 353 363 
 283 227 265 
 231 284 266 
 9 320 10 
 128 397 392 
 200 179 199 
 193 387 386 
 376 378 424 
 54 194 375 
 200 154 179 
 214 275 77 
 98 425 399 
 112 410 75 
 368 387 357 
 385 366 335 
 306 335 366 
 130 217 397 
 390 397 217 
 98 115 425 
 422 351 371 
 200 345 154 
 309 394 426 
 393 310 427 
 415 116 408 
 292 408 116 
 302 147 399 
 101 262 263 
 428 250 252 
 193 357 387 
 151 45 47 
 15 47 45 
 326 330 304 
 76 75 410 
 415 343 116 
 98 399 147 
 422 371 417 
 225 109 372 
 224 241 107 
 136 115 100 
 404 188 238 
 383 325 340 
 196 340 325 
 31 33 272 
 388 303 301 
 166 301 303 
 383 307 172 
 4 413 212 
 221 420 321 
 193 403 213 
 350 213 403 
 385 5 342 
 112 18 269 
 383 172 429 
 368 366 387 
 332 184 187 
 96 338 339 
 296 208 338 
 127 10 320 
 193 386 403 
 378 430 424 
 337 364 427 
 393 427 364 
 394 365 426 
 183 426 365 
 95 97 290 
 21 23 216 
 270 216 23 
 235 431 239 
 319 239 431 
 298 411 291 
 388 291 411 
 385 335 5 
 181 223 308 
 276 308 223 
 74 77 275 
 54 357 194 
 247 351 297 
 235 234 419 
 98 100 115 
 271 269 18 
 415 407 416 
 152 416 407 
 4 1 413 
 302 413 1 
 157 430 36 
 350 403 317 
 404 238 264 
 202 264 238 
 359 381 360 
 361 360 382 
 220 205 327 
 267 396 402 
 59 321 420 
 368 318 402 
 191 141 189 
 348 189 141 
 137 414 126 
 428 252 153 
 215 134 429 
 146 429 134 
 114 398 425 
 354 425 398 
 46 182 33 
 178 199 179 
 219 179 154 
 309 426 106 
 310 110 427 
 157 424 430 
 24 432 418 
 137 139 414 
 288 290 97 
 422 417 433 
 319 433 417 
 354 399 425 
 373 168 148 
 102 126 414 
 114 425 115 
 88 153 252 
 117 249 139 
 76 410 97 
 183 365 294 
 337 379 364 
 221 395 420 
 422 35 351 
 120 406 329 
 350 69 213 
 280 336 370 
 259 370 336 
 247 371 351 
 344 72 345 
 373 434 391 
 401 391 434 
 337 427 110 
 183 106 426 
 164 382 360 
 164 360 381 
 404 414 139 
 302 316 413 
 160 162 254 
 24 142 432 
 146 325 429 
 22 405 142 
 384 363 374 
 373 122 434 
 322 417 371 
 112 269 409 
 192 189 111 
 123 363 124 
 384 124 363 
 422 433 421 
 376 421 433 
 389 341 412 
 144 420 395 
 350 317 398 
 354 398 317 
 167 411 406 
 383 429 325 
 30 172 307 
 404 139 249 
 270 23 305 
 376 431 377 
 235 377 431 
 176 355 369 
 160 412 341 
 376 433 431 
 215 429 172 
 319 431 433 
 268 305 418 
 24 418 305 
 288 97 410 
 268 409 269 
 376 424 421 
 348 111 189 
 74 369 355 
 157 421 424 
 24 305 23 
