TITLE      =  "2D FE Unstructured grid data" 
VARIABLES = "X", "Y", "U", "Dom" 
ZONE T="P1", F=FEPOINT, N= 444 E= 805  ET=TRIANGLE 
 5.257092 4.951127 10.208217 13
 5.213462 4.793371 10.006827 13
 5.330429 4.858052 10.188476 13
 5.151765 4.907310 10.059075 13
 4.623034 6.302894 10.925969 13
 4.483908 6.449684 10.933637 13
 4.452465 6.301439 10.753945 13
 4.723909 5.068506 9.792422 13
 4.847394 4.979242 9.826641 13
 4.890870 5.132880 10.023759 13
 5.017903 4.996035 10.013938 13
 4.410115 6.599568 11.009737 13
 4.332772 6.515707 10.848533 13
 4.330570 6.401648 10.732270 13
 3.828752 6.011590 9.840403 13
 3.775733 5.907977 9.683768 13
 3.940711 5.922763 9.863524 13
 4.970822 4.493345 9.464154 13
 5.151458 4.531467 9.682913 13
 5.054547 4.627533 9.682068 13
 3.720820 6.912322 10.633228 13
 3.724187 6.781441 10.505706 13
 3.827966 6.839842 10.667883 13
 3.906242 5.805687 9.711978 13
 4.596781 5.505511 10.102318 13
 4.767055 5.487215 10.254287 13
 4.696230 5.614021 10.310272 13
 4.550435 6.184982 10.735457 13
 5.782885 4.915845 10.698708 13
 5.654538 5.009116 10.663643 13
 5.613523 4.876764 10.490272 13
 5.510816 4.964171 10.474976 13
 5.056756 4.851300 9.908048 13
 5.088861 4.732314 9.821167 13
 5.222429 5.423650 10.646078 13
 5.284202 5.287165 10.571364 13
 5.358247 5.399813 10.758057 13
 4.243496 4.933706 9.177222 13
 4.234445 4.810615 9.045079 13
 4.356071 4.907642 9.263730 13
 4.682370 6.145089 10.827492 13
 4.738197 6.044947 10.783166 13
 4.770121 6.206210 10.976361 13
 3.989424 5.286408 9.275867 13
 4.150170 5.339636 9.489839 13
 4.049580 5.430021 9.479637 13
 4.102524 5.218718 9.321275 13
 3.623137 6.846333 10.469551 13
 4.390341 4.809024 9.199379 13
 4.844717 6.127686 10.972427 13
 5.103247 4.421588 9.524817 13
 5.087639 5.919766 11.007421 13
 5.172787 6.042550 11.215348 13
 5.027209 6.035408 11.062631 13
 3.481136 6.425205 9.906419 13
 3.351527 6.339208 9.690808 13
 3.475854 6.270106 9.746031 13
 3.313665 6.154677 9.468418 13
 5.219138 6.610251 11.829415 13
 5.205322 6.783471 11.988814 13
 5.094726 6.711517 11.806273 13
 4.741090 4.800401 9.541493 13
 4.777213 4.665328 9.442526 13
 4.865252 4.762175 9.627430 13
 3.406950 5.209372 8.616370 13
 3.306184 5.104462 8.410696 13
 3.421729 5.051481 8.473254 13
 4.634031 5.393753 10.027802 13
 4.209164 6.676344 10.885570 13
 4.083702 6.608777 10.692544 13
 4.210244 6.520789 10.731095 13
 4.047033 6.461767 10.508865 13
 3.213394 5.191581 8.405033 13
 3.298322 5.287309 8.585688 13
 5.146527 5.660914 10.807448 13
 5.281844 5.563485 10.845330 13
 5.260324 5.714407 10.974737 13
 3.965637 4.859202 8.824856 13
 4.098414 4.774844 8.873267 13
 4.116724 4.919291 9.036033 13
 3.598216 6.522669 10.120955 13
 3.456605 6.579809 10.036489 13
 3.615132 6.728545 10.343754 13
 3.629506 5.674319 9.303884 13
 3.675593 5.526574 9.202218 13
 3.741936 5.683527 9.425521 13
 3.789196 5.580353 9.369600 13
 5.458508 4.842330 10.300826 13
 5.128078 5.529068 10.657152 13
 3.589037 5.975732 9.564836 13
 3.508303 6.124942 9.633311 13
 3.423122 6.009644 9.432835 13
 3.945071 5.537083 9.482187 13
 3.889776 5.689489 9.579323 13
 3.447616 5.752425 9.200109 13
 3.519192 5.612889 9.132143 13
 3.560547 5.764571 9.325181 13
 5.427352 5.250156 10.677496 13
 5.711236 4.758887 10.470100 13
 4.403582 5.393932 9.797543 13
 4.367148 5.274304 9.641473 13
 4.506149 5.309174 9.815347 13
 4.519849 5.664965 10.184842 13
 4.478020 5.792209 10.270263 13
 4.405655 5.647001 10.052688 13
 3.621964 6.380307 10.002343 13
 3.617217 6.218404 9.835690 13
 4.358768 5.740221 10.099026 13
 3.036210 5.285058 8.321326 13
 3.164217 5.324009 8.488289 13
 3.073294 5.462520 8.535877 13
 5.330009 6.659079 11.989105 13
 4.374683 7.131568 11.506312 13
 4.237511 7.038578 11.276161 13
 4.349758 7.017886 11.367702 13
 3.285072 4.974949 8.260057 13
 4.218152 7.147321 11.365544 13
 4.725826 4.925068 9.650895 13
 3.777973 6.416477 10.194523 13
 3.922608 6.355734 10.278401 13
 3.912579 6.474751 10.387403 13
 4.566793 6.573065 11.139900 13
 4.145229 7.234875 11.380177 13
 4.059261 7.122772 11.182105 13
 3.510746 5.861794 9.372612 13
 3.652773 5.830866 9.483706 13
 4.059628 6.004992 10.064676 13
 3.938392 6.086611 10.025064 13
 3.309231 5.982487 9.291788 13
 3.927176 6.221677 10.148912 13
 3.770183 6.156655 9.926902 13
 5.057843 6.603064 11.660933 13
 3.522639 5.143044 8.665724 13
 5.944004 4.749156 10.693122 13
 5.838029 4.800569 10.638577 13
 5.821872 4.670084 10.491938 13
 5.155808 4.309731 9.465519 13
 5.021509 4.346021 9.367513 13
 5.072066 4.195681 9.267726 13
 3.803937 5.090874 8.894841 13
 3.644509 5.074558 8.719097 13
 3.738236 4.948034 8.686306 13
 3.559541 7.424548 10.984179 13
 3.627092 7.551364 11.178535 13
 3.447775 7.505364 10.953231 13
 5.915690 4.628152 10.543819 13
 5.452739 5.522282 10.975015 13
 5.566566 4.755843 10.322395 13
 3.754881 5.387010 9.141936 13
 3.830001 5.262227 9.092266 13
 3.897923 5.397285 9.295247 13
 4.633508 5.739126 10.372663 13
 4.783075 5.736701 10.519790 13
 5.307677 5.989727 11.297419 13
 5.244080 6.136095 11.380181 13
 4.800302 5.598439 10.398753 13
 3.714106 6.028776 9.742947 13
 3.818583 5.480961 9.299595 13
 4.974689 6.722596 11.697316 13
 4.848577 6.738701 11.587314 13
 4.914988 6.591507 11.506528 13
 4.793907 6.642322 11.436266 13
 4.559124 5.076210 9.635350 13
 4.616161 4.974397 9.590561 13
 4.121198 7.040025 11.161288 13
 4.886099 5.298410 10.184522 13
 4.771914 5.224289 9.996215 13
 4.928779 4.868985 9.797770 13
 5.479351 5.804839 11.284194 13
 5.619124 5.899089 11.518207 13
 5.482297 5.971089 11.453387 13
 5.635381 6.053502 11.688885 13
 3.416707 5.654121 9.070889 13
 3.519774 5.432137 8.951964 13
 3.819483 6.289340 10.108888 13
 3.572550 6.630432 10.203065 13
 3.721129 6.618779 10.339987 13
 4.613519 6.446199 11.059755 13
 4.440813 5.201459 9.642293 13
 4.168963 6.230496 10.399521 13
 4.053305 6.149411 10.202777 13
 4.156271 6.085233 10.241559 13
 4.882155 5.653976 10.536144 13
 5.004355 5.621849 10.626215 13
 4.936058 5.781611 10.717685 13
 5.055205 5.730065 10.785284 13
 4.261810 6.154975 10.416837 13
 3.720242 7.024384 10.744709 13
 3.818640 6.978978 10.797697 13
 3.808242 7.139900 10.948230 13
 4.050350 6.303873 10.354280 13
 5.162831 5.003466 10.166294 13
 4.650256 5.168060 9.818328 13
 5.338184 6.231318 11.569509 13
 5.399867 6.102345 11.502217 13
 5.459824 6.216411 11.676232 13
 5.223313 4.165204 9.388500 13
 3.710642 6.294157 10.004864 13
 5.580335 6.184878 11.765207 13
 5.550116 6.335684 11.885798 13
 5.135509 6.219526 11.355053 13
 5.055723 6.299394 11.355134 13
 4.986338 6.169107 11.155465 13
 4.955557 6.285827 11.241403 13
 5.740473 5.837762 11.578233 13
 5.763447 5.978761 11.742201 13
 5.396432 5.675292 11.071726 13
 3.387095 5.854040 9.241202 13
 5.523358 5.669412 11.192769 13
 5.322007 5.177429 10.499436 13
 3.635663 6.101223 9.736954 13
 4.774349 6.316844 11.091219 13
 5.106018 6.117599 11.223634 13
 5.280290 6.342507 11.622805 13
 5.411267 6.342228 11.753499 13
 5.295508 6.477823 11.773344 13
 5.448219 6.482357 11.930589 13
 5.589419 4.442449 10.031851 13
 5.489552 4.544328 10.033868 13
 5.448073 4.418504 9.866565 13
 5.156132 5.318573 10.474706 13
 3.481774 7.339940 10.821808 13
 3.377903 7.389180 10.767179 13
 5.669859 5.435611 11.105462 13
 5.576156 5.295096 10.871243 13
 5.721006 5.298769 11.019753 13
 4.417337 6.191537 10.608920 13
 4.965833 5.912179 10.878032 13
 4.420889 5.943147 10.364080 13
 4.356926 6.065837 10.422814 13
 4.294610 5.933435 10.228090 13
 4.228453 5.249140 9.477624 13
 4.223283 5.113678 9.336988 13
 4.090350 5.075854 9.166226 13
 4.772575 5.352796 10.125388 13
 4.897430 5.420352 10.317790 13
 4.607901 5.981206 10.589139 13
 4.605456 6.088699 10.694185 13
 5.577623 5.550125 11.127742 13
 3.189896 5.445690 8.635644 13
 4.009738 4.968693 8.978451 13
 5.804010 5.401198 11.205194 13
 4.932013 4.647442 9.579448 13
 3.919438 7.045442 10.964961 13
 3.616906 5.228161 8.845108 13
 3.632662 5.360464 8.993175 13
 3.724198 5.187801 8.912039 13
 4.045402 7.234003 11.279478 13
 5.004020 5.485520 10.489547 13
 5.105770 5.420438 10.526211 13
 3.798507 5.780425 9.578987 13
 5.020781 5.135246 10.156028 13
 5.666567 5.153465 10.820018 13
 5.531351 5.169324 10.700664 13
 5.788845 5.072317 10.861145 13
 4.979389 5.225710 10.205107 13
 5.810320 5.634842 11.445149 13
 5.925596 5.599349 11.524926 13
 5.888014 5.768173 11.656179 13
 4.303561 6.275100 10.578712 13
 5.733994 5.716205 11.450197 13
 5.693315 5.570797 11.264103 13
 3.838081 6.567790 10.405941 13
 4.349597 5.130523 9.480143 13
 5.149235 6.503205 11.652458 13
 5.611839 4.572730 10.184558 13
 5.608884 5.769507 11.378381 13
 5.930738 4.904496 10.835212 13
 5.911179 5.023998 10.935158 13
 3.102245 5.190632 8.292933 13
 3.193439 5.063548 8.257035 13
 4.836123 5.901148 10.737297 13
 3.538919 6.806466 10.345472 13
 3.826000 6.707777 10.533857 13
 4.771996 6.822196 11.594230 13
 4.921848 6.875056 11.796936 13
 5.126162 5.097726 10.223883 13
 5.054564 6.800837 11.855434 13
 4.504116 4.885536 9.389655 13
 5.353764 4.366374 9.720123 13
 5.331782 4.453492 9.785264 13
 5.237947 4.414595 9.652525 13
 4.186042 5.012258 9.198319 13
 5.261233 5.065129 10.326357 13
 5.372214 4.965160 10.337368 13
 5.429159 5.090853 10.520000 13
 4.701678 5.877624 10.579329 13
 3.969505 6.572711 10.542278 13
 4.187191 6.370886 10.558142 13
 5.292158 4.288077 9.580220 13
 5.233618 6.250854 11.484484 13
 4.888825 6.027974 10.916821 13
 5.545734 5.434110 10.979838 13
 5.721786 4.621486 10.343250 13
 5.838165 4.542286 10.380430 13
 4.593714 5.602470 10.196213 13
 4.246490 6.045128 10.291662 13
 3.947360 5.059838 9.007225 13
 3.918432 5.171042 9.089505 13
 5.375283 5.875870 11.251158 13
 5.038819 5.830047 10.868878 13
 5.711939 4.496269 10.208191 13
 4.982566 4.748600 9.731159 13
 3.755050 7.484173 11.239307 13
 3.678781 7.358489 11.037353 13
 3.839210 7.390600 11.229897 13
 3.572624 7.136677 10.709385 13
 3.620426 6.995499 10.616011 13
 3.674249 7.116525 10.790859 13
 3.512885 7.022688 10.535657 13
 4.449084 4.999966 9.449064 13
 3.924407 6.778689 10.703170 13
 3.918741 6.904608 10.823425 13
 3.706648 6.508783 10.215506 13
 5.466787 5.362625 10.829404 13
 4.498084 6.058089 10.556213 13
 4.380692 6.783002 11.163753 13
 4.327588 6.682076 11.009717 13
 4.485376 6.682701 11.168130 13
 5.622384 5.656478 11.278857 13
 4.282556 6.957081 11.239697 13
 4.143545 6.940578 11.084198 13
 4.203537 6.832942 11.036547 13
 5.267864 5.847190 11.115062 13
 5.149359 5.806612 10.955984 13
 4.701714 6.395284 11.097029 13
 3.251264 5.385256 8.636574 13
 3.381427 5.371530 8.753013 13
 3.278691 5.499142 8.777894 13
 3.409681 5.515831 8.925573 13
 5.351101 5.778658 11.129766 13
 4.102388 6.731255 10.833714 13
 4.042965 6.835967 10.879001 13
 5.193571 5.926731 11.120312 13
 5.461146 4.733736 10.194867 13
 3.914390 6.657681 10.572146 13
 5.557873 5.064461 10.622321 13
 4.350440 5.843766 10.194251 13
 3.578867 7.278636 10.857590 13
 4.291726 6.598414 10.890205 13
 4.274296 5.361598 9.635928 13
 4.867213 4.558381 9.425578 13
 4.543251 6.941085 11.484385 13
 4.476462 7.048297 11.524813 13
 4.404589 6.915154 11.319798 13
 4.689008 6.623161 11.312201 13
 4.802021 6.536401 11.338451 13
 3.875270 4.965647 8.840941 13
 4.314944 5.007007 9.321962 13
 4.692145 6.510069 11.202251 13
 3.770442 7.300319 11.070848 13
 5.373848 4.542871 9.916707 13
 5.515975 6.101072 11.617047 13
 4.818504 4.870011 9.688512 13
 4.203794 5.453638 9.657463 13
 4.104136 5.545857 9.650038 13
 3.704860 7.213806 10.918753 13
 3.874635 7.269837 11.144558 13
 5.791789 5.519647 11.311425 13
 4.107207 7.367772 11.475050 13
 3.971478 7.312364 11.283929 13
 3.968200 7.421478 11.389760 13
 5.911627 5.479372 11.390982 13
 3.510435 5.292639 8.803123 13
 4.650166 5.279795 9.929976 13
 4.212558 5.854231 10.066838 13
 4.248597 5.748077 9.996713 13
 4.038553 5.658641 9.697231 13
 3.338020 5.587583 8.925669 13
 4.464545 5.116072 9.580633 13
 3.440204 7.103339 10.543630 13
 3.397062 6.972573 10.369724 13
 5.089581 5.223879 10.313462 13
 5.208089 5.193843 10.401925 13
 4.517680 5.427602 9.945309 13
 5.923215 5.140003 11.063203 13
 5.802876 5.196856 10.999716 13
 4.504460 6.802976 11.307485 13
 3.943378 7.179153 11.122613 13
 4.598559 5.847157 10.445745 13
 4.526024 5.917530 10.443588 13
 4.460289 5.534797 9.995115 13
 4.314150 5.465457 9.779640 13
 4.337113 5.571017 9.908162 13
 4.021440 5.155866 9.177336 13
 5.175752 4.646007 9.821740 13
 4.309435 6.850822 11.160315 13
 5.430542 4.274333 9.704862 13
 5.560513 4.315344 9.875839 13
 3.713630 5.288313 9.001980 13
 4.008707 5.781964 9.790716 13
 3.305654 7.465668 10.771412 13
 5.018191 5.345380 10.363578 13
 4.001836 6.698579 10.700485 13
 5.627614 4.668246 10.295845 13
 4.286083 6.765038 11.051185 13
 4.595124 6.705735 11.300910 13
 4.651010 6.849020 11.500074 13
 5.821927 5.301469 11.123372 13
 4.712487 6.733693 11.446219 13
 5.209268 6.416811 11.626093 13
 4.546166 5.191502 9.737682 13
 4.022027 6.978586 11.000687 13
 5.102062 6.414493 11.516578 13
 5.008130 6.495294 11.503450 13
 5.298054 4.647369 9.945411 13
 3.182012 5.557523 8.739597 13
 4.169448 5.653909 9.823402 13
 5.359335 4.752727 10.112054 13
 3.243331 5.637528 8.880928 13
 3.467101 7.227109 10.694296 13
 5.829604 5.902960 11.732560 13
 3.481405 6.723879 10.205363 13
 3.350997 6.695115 10.046201 13
 3.414002 6.824035 10.238119 13
 4.894711 5.543684 10.438410 13
 4.085330 5.881739 9.967117 13
 4.123805 5.761951 9.885798 13
 5.263251 4.540002 9.803242 13
 5.345887 6.568316 11.914213 13
 5.353297 4.189147 9.542429 13
 5.907853 5.249306 11.157143 13
 3.315720 5.737246 9.053034 13
 3.652785 7.454267 11.107132 13
 5.906826 5.361221 11.268032 13
 3.245531 7.230278 10.475900 13
 3.366880 7.285813 10.652789 13
 3.278885 7.344421 10.623400 13
 4.901669 6.452595 11.354292 13
 3.350084 7.183947 10.534126 13
 4.228028 5.563161 9.791218 13
 4.799413 6.423173 11.222618 13
 4.168519 5.965186 10.133754 13
 3.519023 6.909560 10.428666 13
 4.984843 6.382586 11.367453 13
 3.834062 4.861106 8.695189 13
 4.284595 5.652598 9.937229 13
 5.170027 6.324827 11.494872 13
 3.892871 7.484823 11.377774 13
 4.620383 4.846562 9.466949 13
 4.880465 6.349662 11.230158 13
 5.413896 4.651574 10.065462 13
 5.527368 4.655096 10.182452 13
 4.866957 6.236947 11.103924 13
 1 2 3 
 4 2 1 
 5 6 7 
 8 9 10 
 11 10 9 
 12 13 6 
 14 6 13 
 15 16 17 
 18 19 20 
 21 22 23 
 17 16 24 
 25 26 27 
 5 7 28 
 29 30 31 
 32 31 30 
 2 33 34 
 35 36 37 
 38 39 40 
 41 42 43 
 44 45 46 
 47 45 44 
 48 22 21 
 40 39 49 
 43 42 50 
 18 51 19 
 4 33 2 
 52 53 54 
 55 56 57 
 58 57 56 
 59 60 61 
 62 63 64 
 65 66 67 
 25 68 26 
 69 70 71 
 72 71 70 
 73 66 74 
 75 76 77 
 78 79 80 
 55 81 82 
 83 22 48 
 74 66 65 
 35 37 76 
 84 85 86 
 87 86 85 
 32 88 31 
 89 76 75 
 90 91 92 
 93 94 87 
 95 96 97 
 98 37 36 
 29 31 99 
 100 101 102 
 58 92 91 
 103 104 105 
 55 57 106 
 107 106 57 
 104 108 105 
 109 110 111 
 59 112 60 
 113 114 115 
 116 67 66 
 113 117 114 
 8 118 9 
 119 120 121 
 12 6 122 
 117 123 124 
 90 125 126 
 127 128 17 
 58 129 92 
 130 131 128 
 15 128 131 
 59 61 132 
 65 67 133 
 84 97 96 
 134 135 136 
 90 126 16 
 137 138 139 
 140 141 142 
 143 144 145 
 134 136 146 
 147 76 37 
 31 88 148 
 149 150 151 
 44 151 150 
 152 27 153 
 72 121 120 
 15 17 128 
 154 155 53 
 27 156 153 
 90 16 157 
 93 87 158 
 159 160 161 
 162 161 160 
 8 163 164 
 152 104 103 
 165 117 124 
 166 167 10 
 8 10 167 
 11 9 168 
 169 170 171 
 172 171 170 
 95 173 96 
 84 96 85 
 174 85 96 
 119 175 120 
 83 176 177 
 5 178 6 
 130 175 131 
 179 102 101 
 58 91 57 
 180 181 182 
 183 184 185 
 186 185 184 
 180 182 187 
 14 7 6 
 188 189 190 
 130 181 191 
 180 191 181 
 11 4 192 
 8 193 163 
 194 195 196 
 137 139 197 
 8 164 118 
 107 131 198 
 196 199 200 
 29 99 135 
 201 202 203 
 204 203 202 
 126 125 97 
 205 206 170 
 172 170 206 
 147 207 76 
 77 76 207 
 92 129 208 
 147 209 207 
 159 161 132 
 98 36 210 
 155 195 194 
 107 211 131 
 5 43 212 
 5 41 43 
 201 213 155 
 214 215 216 
 217 216 215 
 218 219 220 
 35 221 36 
 222 143 145 
 223 222 145 
 224 225 226 
 227 28 7 
 52 54 228 
 229 230 231 
 232 47 233 
 234 233 47 
 26 235 236 
 237 42 238 
 41 238 42 
 149 158 85 
 92 208 125 
 147 239 209 
 111 110 240 
 15 131 157 
 11 33 4 
 78 80 241 
 72 120 191 
 224 226 242 
 18 20 243 
 90 92 125 
 244 190 189 
 245 133 141 
 155 213 53 
 149 85 246 
 140 247 141 
 245 141 247 
 55 106 81 
 154 195 155 
 248 124 123 
 249 250 89 
 251 24 16 
 87 85 158 
 83 177 22 
 11 252 10 
 93 151 46 
 44 46 151 
 177 176 81 
 253 225 254 
 98 254 225 
 253 30 255 
 29 255 30 
 166 10 256 
 257 258 259 
 75 186 184 
 35 76 89 
 84 86 126 
 251 126 86 
 227 187 230 
 227 260 187 
 257 261 262 
 119 121 263 
 232 233 264 
 166 236 235 
 232 264 101 
 59 132 265 
 249 89 184 
 218 266 219 
 205 170 267 
 29 268 269 
 73 270 271 
 174 246 85 
 272 185 228 
 83 48 273 
 177 263 274 
 89 75 184 
 275 160 276 
 11 192 277 
 60 278 61 
 279 40 49 
 159 132 61 
 234 241 80 
 107 57 91 
 280 281 282 
 201 203 213 
 127 181 128 
 234 80 283 
 134 268 135 
 284 285 286 
 90 211 91 
 29 269 255 
 272 287 153 
 5 28 41 
 72 288 121 
 14 289 260 
 131 175 198 
 35 89 250 
 251 86 94 
 290 280 282 
 201 155 291 
 98 210 286 
 39 80 79 
 39 38 80 
 54 203 292 
 224 293 225 
 136 294 295 
 152 103 296 
 297 231 230 
 183 153 156 
 140 298 299 
 140 299 150 
 169 171 300 
 154 300 171 
 185 301 228 
 302 295 294 
 64 243 303 
 272 42 287 
 304 305 306 
 307 308 309 
 310 308 307 
 279 164 311 
 163 311 164 
 98 286 254 
 180 260 289 
 87 94 86 
 23 312 313 
 81 106 314 
 205 267 261 
 72 191 289 
 180 289 191 
 147 37 315 
 152 153 287 
 229 316 230 
 64 303 168 
 119 263 314 
 317 318 319 
 320 262 261 
 321 322 323 
 14 71 289 
 237 287 42 
 77 324 325 
 29 135 268 
 5 212 326 
 119 314 106 
 72 70 288 
 217 215 200 
 327 328 329 
 11 168 33 
 224 239 293 
 328 330 329 
 169 331 207 
 69 323 332 
 333 332 323 
 52 334 53 
 335 148 88 
 18 138 51 
 72 289 71 
 336 274 263 
 196 200 215 
 154 171 195 
 50 292 203 
 218 302 266 
 321 115 114 
 32 286 285 
 188 190 309 
 64 63 243 
 154 324 300 
 253 337 30 
 272 153 185 
 183 185 153 
 98 225 315 
 130 128 181 
 108 104 338 
 143 339 305 
 257 259 261 
 69 71 340 
 147 315 293 
 23 274 312 
 131 211 157 
 177 81 314 
 229 338 104 
 205 261 259 
 100 341 101 
 18 243 342 
 32 337 286 
 234 298 241 
 154 334 324 
 343 344 345 
 162 346 347 
 137 197 290 
 140 348 298 
 349 311 264 
 350 347 346 
 305 351 306 
 219 352 220 
 177 274 22 
 69 332 70 
 196 353 199 
 44 150 299 
 279 311 40 
 327 240 110 
 168 9 354 
 355 356 46 
 12 122 319 
 357 190 351 
 358 351 190 
 224 262 239 
 257 262 359 
 253 254 337 
 227 316 28 
 140 142 348 
 248 123 360 
 93 46 356 
 248 360 361 
 362 361 360 
 363 258 359 
 257 359 258 
 65 364 328 
 174 328 364 
 365 68 102 
 159 276 160 
 284 286 210 
 64 168 354 
 253 226 225 
 14 260 7 
 227 7 260 
 154 53 334 
 366 367 338 
 93 368 94 
 330 173 369 
 96 173 330 
 82 81 176 
 77 331 324 
 172 353 171 
 311 370 264 
 137 290 282 
 344 115 345 
 93 158 151 
 362 306 361 
 358 361 306 
 310 371 372 
 174 96 330 
 73 271 66 
 357 305 339 
 251 16 126 
 373 374 221 
 102 68 375 
 54 53 213 
 302 294 266 
 376 377 255 
 26 68 235 
 317 378 345 
 343 345 378 
 59 265 216 
 36 221 374 
 152 296 27 
 358 379 361 
 237 380 287 
 14 13 71 
 169 300 331 
 321 114 322 
 237 316 381 
 229 381 316 
 100 382 383 
 384 383 382 
 234 385 298 
 34 386 2 
 196 195 353 
 321 323 387 
 136 295 146 
 169 207 209 
 248 361 379 
 388 389 220 
 78 241 348 
 298 348 241 
 149 390 150 
 140 150 247 
 317 319 378 
 166 235 167 
 365 167 235 
 391 94 368 
 130 120 175 
 357 339 307 
 223 145 392 
 373 221 393 
 333 312 394 
 395 266 294 
 84 126 97 
 333 394 332 
 281 220 352 
 65 133 364 
 245 364 133 
 69 396 323 
 397 398 378 
 343 378 398 
 54 292 228 
 12 319 318 
 218 220 389 
 243 20 303 
 34 303 20 
 399 242 226 
 162 160 400 
 119 106 198 
 333 323 322 
 169 267 170 
 216 265 401 
 95 97 125 
 251 94 24 
 272 292 42 
 152 380 104 
 119 198 175 
 165 114 117 
 163 193 402 
 50 42 292 
 77 207 331 
 93 356 368 
 244 403 124 
 98 315 37 
 404 265 405 
 237 381 380 
 127 182 181 
 225 293 315 
 406 2 386 
 229 104 381 
 111 240 407 
 103 382 296 
 408 368 356 
 130 191 120 
 174 364 246 
 245 246 364 
 118 354 9 
 54 213 203 
 137 51 138 
 391 24 94 
 52 228 301 
 25 296 382 
 406 409 2 
 3 2 409 
 369 410 329 
 407 329 410 
 355 46 45 
 366 338 231 
 143 222 339 
 357 309 190 
 284 1 285 
 411 307 339 
 205 412 206 
 376 255 269 
 395 99 148 
 333 322 403 
 132 405 265 
 333 313 312 
 174 330 328 
 31 148 99 
 136 135 99 
 34 20 386 
 333 403 313 
 15 157 16 
 205 259 412 
 44 385 47 
 232 45 47 
 77 325 75 
 373 252 277 
 411 371 307 
 310 307 371 
 275 400 160 
 397 319 122 
 373 277 374 
 253 255 377 
 179 402 102 
 365 102 402 
 177 314 263 
 65 328 74 
 327 74 328 
 11 277 252 
 286 337 254 
 82 413 414 
 415 414 413 
 26 236 416 
 393 221 250 
 397 122 346 
 350 346 122 
 335 88 409 
 3 409 88 
 391 417 17 
 127 17 417 
 284 374 277 
 408 418 368 
 32 30 337 
 166 256 393 
 73 74 110 
 327 110 74 
 147 293 239 
 107 91 211 
 90 157 211 
 227 230 316 
 44 299 385 
 406 386 419 
 349 233 283 
 52 325 334 
 324 334 325 
 107 198 106 
 59 216 420 
 244 124 379 
 197 421 290 
 25 27 296 
 172 199 353 
 363 359 242 
 23 313 189 
 365 193 167 
 8 167 193 
 358 190 379 
 6 178 122 
 350 122 178 
 376 422 377 
 316 238 28 
 95 208 423 
 357 351 305 
 26 156 27 
 143 305 424 
 32 285 88 
 3 88 285 
 272 228 292 
 249 236 393 
 166 393 236 
 397 400 398 
 275 398 400 
 391 368 418 
 304 424 305 
 162 347 161 
 108 338 367 
 363 242 425 
 369 329 330 
 244 189 313 
 320 261 267 
 373 393 256 
 426 427 428 
 429 161 347 
 320 209 239 
 324 331 300 
 116 66 271 
 426 430 427 
 165 403 322 
 232 341 45 
 355 45 341 
 244 379 190 
 237 238 316 
 349 264 233 
 284 277 192 
 355 431 356 
 304 144 424 
 249 184 416 
 183 416 184 
 244 313 403 
 179 101 264 
 349 38 40 
 143 424 144 
 180 187 260 
 297 230 187 
 408 356 431 
 349 283 38 
 243 63 342 
 5 326 178 
 152 287 380 
 217 420 216 
 162 400 346 
 103 105 382 
 19 419 386 
 3 285 1 
 297 187 182 
 171 353 195 
 186 301 185 
 179 370 402 
 163 402 370 
 249 393 250 
 298 385 299 
 188 309 308 
 350 432 347 
 366 231 433 
 297 433 231 
 165 124 403 
 350 326 432 
 357 307 309 
 169 209 267 
 384 382 105 
 366 418 367 
 429 405 161 
 82 176 413 
 83 413 176 
 149 151 158 
 369 173 423 
 95 423 173 
 365 235 68 
 132 161 405 
 245 390 246 
 25 375 68 
 234 283 233 
 310 434 308 
 214 216 401 
 59 420 112 
 48 308 434 
 95 125 208 
 310 372 434 
 165 322 114 
 373 256 252 
 23 22 274 
 388 290 421 
 19 386 20 
 415 434 372 
 404 405 435 
 411 430 371 
 415 413 273 
 100 102 375 
 34 33 303 
 168 303 33 
 142 436 348 
 127 417 433 
 366 433 417 
 136 99 294 
 108 437 105 
 408 367 418 
 12 318 340 
 234 47 385 
 73 110 270 
 109 270 110 
 163 370 311 
 19 282 419 
 320 239 262 
 36 374 210 
 284 210 374 
 411 339 222 
 12 340 13 
 397 378 319 
 159 61 278 
 196 215 194 
 214 194 215 
 366 417 418 
 369 423 410 
 404 202 438 
 149 246 390 
 320 267 209 
 404 435 202 
 304 306 439 
 80 38 283 
 388 220 280 
 281 280 220 
 223 392 428 
 70 394 288 
 415 273 434 
 100 375 382 
 25 382 375 
 365 402 193 
 349 40 311 
 355 383 431 
 384 431 383 
 395 294 99 
 391 17 24 
 127 433 182 
 224 242 359 
 224 359 262 
 336 312 274 
 19 51 282 
 35 250 221 
 113 115 344 
 358 306 351 
 399 422 425 
 41 28 238 
 336 288 394 
 391 418 417 
 404 401 265 
 232 101 341 
 321 345 115 
 245 247 390 
 388 280 290 
 253 377 226 
 399 226 377 
 399 425 242 
 100 383 341 
 355 341 383 
 281 419 282 
 108 367 437 
 362 439 306 
 70 332 394 
 118 164 440 
 279 440 164 
 10 252 256 
 121 288 263 
 336 263 288 
 204 435 441 
 429 441 435 
 399 377 422 
 23 189 21 
 429 435 405 
 384 105 437 
 406 352 442 
 78 348 436 
 183 156 416 
 26 416 156 
 336 394 312 
 249 416 236 
 397 346 400 
 186 75 325 
 83 273 413 
 201 291 438 
 137 282 51 
 204 202 435 
 229 231 338 
 212 432 326 
 188 21 189 
 395 443 266 
 219 266 443 
 248 379 124 
 150 390 247 
 411 222 427 
 223 427 222 
 406 419 352 
 179 264 370 
 219 442 352 
 350 178 326 
 204 444 203 
 50 203 444 
 321 387 345 
 317 345 387 
 212 441 432 
 118 62 354 
 64 354 62 
 335 409 442 
 406 442 409 
 52 301 325 
 186 325 301 
 297 182 433 
 214 401 438 
 69 318 396 
 429 347 432 
 48 434 273 
 214 438 291 
 404 438 401 
 201 438 202 
 188 308 21 
 48 21 308 
 335 442 443 
 219 443 442 
 104 380 381 
 223 428 427 
 408 437 367 
 284 192 1 
 411 427 430 
 69 340 318 
 281 352 419 
 429 432 441 
 407 240 329 
 327 329 240 
 317 396 318 
 395 148 443 
 212 444 441 
 335 443 148 
 71 13 340 
 408 431 437 
 4 1 192 
 212 43 444 
 214 291 194 
 384 437 431 
 204 441 444 
 118 440 62 
 155 194 291 
 50 444 43 
 323 396 387 
 317 387 396 
