TITLE      =  "2D FE Unstructured grid data" 
VARIABLES = "X", "Y", "U", "Dom" 
ZONE T="P1", F=FEPOINT, N= 435 E= 793  ET=TRIANGLE 
 2.457381 7.696479 10.153942 15
 2.330687 7.682017 10.012788 15
 2.433056 7.563674 9.996820 15
 2.215323 8.693197 10.908589 15
 2.352635 8.589117 10.941817 15
 2.338058 8.714190 11.052318 15
 3.044516 8.797724 11.842299 15
 2.927110 8.801484 11.728663 15
 2.978158 8.659540 11.637769 15
 3.125738 8.723030 11.848838 15
 2.534269 7.374473 9.908834 15
 2.443488 7.311311 9.754886 15
 2.579876 7.256678 9.836646 15
 2.255517 8.547160 10.802748 15
 2.511587 9.677944 12.189549 15
 2.365838 9.722083 12.087938 15
 2.355013 9.581230 11.936266 15
 3.642383 7.890832 11.533297 15
 3.511250 7.910295 11.421628 15
 3.556786 7.772664 11.329536 15
 3.421979 7.817657 11.239727 15
 2.282214 7.583952 9.866244 15
 2.389450 8.917956 11.307461 15
 2.507951 8.842249 11.350260 15
 2.535382 9.000408 11.535843 15
 3.948256 8.299196 12.247517 15
 3.843820 8.384261 12.228141 15
 3.843518 8.238039 12.081625 15
 3.734205 8.298347 12.032619 15
 2.305840 7.476904 9.782828 15
 2.232544 9.342650 11.575223 15
 2.231482 9.477139 11.708641 15
 2.118436 9.423791 11.542257 15
 2.107061 8.657786 10.764917 15
 2.156330 8.559928 10.716334 15
 2.988788 8.221578 11.210446 15
 2.848468 8.223381 11.071929 15
 2.938308 8.067600 11.005992 15
 3.081775 8.353309 11.435160 15
 2.937531 8.385432 11.323040 15
 2.634778 9.100739 11.735577 15
 2.751874 9.095387 11.847310 15
 2.661494 9.223904 11.885435 15
 2.417764 7.184912 9.602764 15
 3.611111 10.000000 13.611111 15
 3.472222 10.000000 13.472222 15
 3.516792 9.854188 13.370984 15
 2.809457 9.542949 12.352439 15
 2.863925 9.418609 12.282568 15
 2.953662 9.542715 12.496401 15
 2.807078 9.202169 12.009296 15
 3.641623 9.892745 13.534374 15
 2.456092 9.784729 12.240834 15
 2.601451 8.230957 10.832482 15
 2.705326 8.289047 10.994456 15
 2.563487 8.380516 10.944079 15
 3.099504 7.861408 10.961000 15
 3.087139 7.754130 10.841360 15
 3.246407 7.816896 11.063395 15
 3.455959 8.054653 11.510689 15
 3.603015 8.014289 11.617383 15
 3.522590 8.166489 11.689157 15
 2.826501 8.085840 10.912424 15
 3.357792 9.078940 12.436775 15
 3.207491 9.144413 12.351949 15
 3.270567 9.026120 12.296727 15
 2.580719 9.428445 12.009199 15
 2.584457 9.302958 11.887455 15
 2.726588 9.342508 12.069133 15
 2.313748 7.309247 9.623081 15
 2.418204 7.433827 9.852114 15
 2.583979 7.497101 10.081171 15
 2.759440 7.514537 10.274067 15
 2.666480 7.624243 10.290814 15
 3.600476 8.706468 12.306992 15
 3.692692 8.572439 12.265185 15
 3.757893 8.727348 12.485288 15
 3.167779 7.683233 10.851108 15
 1.970951 8.965046 10.936041 15
 1.824499 9.015575 10.840119 15
 1.870443 8.844454 10.714954 15
 2.824404 7.342330 10.166825 15
 2.669007 7.374741 10.043840 15
 2.339659 9.421269 11.760963 15
 3.350409 9.182704 12.533152 15
 2.908478 7.476202 10.384781 15
 2.610155 8.909194 11.519409 15
 3.841172 8.600904 12.442129 15
 3.907595 8.740753 12.648395 15
 3.835572 8.882611 12.718224 15
 2.684485 8.547401 11.231959 15
 2.845678 8.557736 11.403488 15
 2.742036 8.654783 11.396891 15
 2.753611 9.666281 12.419920 15
 2.642692 9.569966 12.212684 15
 2.685320 8.413293 11.098686 15
 3.245531 7.230278 10.475896 15
 3.155838 7.313945 10.469877 15
 3.091022 7.181091 10.272204 15
 3.426557 8.510435 11.937059 15
 3.487289 8.414026 11.901381 15
 3.542542 8.558068 12.100671 15
 3.612251 8.459483 12.071803 15
 2.952770 7.357646 10.310513 15
 3.067519 7.422348 10.489957 15
 2.796300 8.460410 11.256787 15
 2.210943 7.419106 9.630130 15
 3.030931 7.537596 10.568618 15
 3.045278 7.292064 10.337440 15
 3.215754 9.288006 12.503792 15
 3.364952 9.339704 12.704679 15
 3.637452 8.120075 11.757605 15
 2.523983 9.183787 11.707813 15
 3.714597 9.291065 13.005690 15
 3.848248 9.314283 13.162558 15
 3.702993 9.434791 13.137814 15
 3.857107 9.455001 13.312137 15
 2.799217 7.693826 10.493138 15
 2.923133 7.614957 10.538183 15
 1.590732 7.730081 9.320874 15
 1.716652 7.782197 9.498919 15
 1.610746 7.862753 9.473560 15
 2.638889 10.000000 12.638889 15
 2.500000 10.000000 12.500000 15
 2.564223 9.843437 12.407667 15
 2.808614 7.168708 9.977407 15
 2.942381 7.236932 10.179405 15
 1.904055 7.879086 9.783216 15
 1.837587 7.992599 9.830261 15
 1.796929 7.883687 9.680684 15
 3.441815 8.638124 12.080005 15
 2.449164 9.443862 11.893064 15
 3.928511 9.222762 13.151298 15
 4.074122 9.245570 13.319710 15
 4.003203 9.356768 13.359994 15
 3.484770 8.751163 12.235991 15
 1.961229 7.996693 9.957995 15
 3.326754 8.652893 11.979713 15
 3.258701 8.765776 12.024542 15
 3.199464 8.588102 11.787640 15
 3.039750 9.448254 12.488032 15
 3.510660 7.636990 11.147750 15
 3.447775 7.505364 10.953231 15
 3.627092 7.551364 11.178559 15
 2.654395 8.768534 11.422996 15
 2.535372 8.717549 11.252986 15
 2.466010 8.508545 10.974630 15
 2.438167 8.359035 10.797276 15
 3.667729 8.858192 12.525963 15
 3.031659 8.517939 11.549666 15
 2.703299 9.902945 12.606245 15
 1.687510 7.652841 9.340418 15
 3.131418 8.196046 11.327540 15
 2.318282 8.054093 10.372458 15
 2.336846 7.907362 10.244292 15
 2.449202 7.997257 10.446548 15
 1.965205 8.701877 10.667138 15
 1.803862 8.695800 10.499720 15
 2.307197 8.331261 10.638529 15
 2.310130 8.199123 10.509331 15
 2.416319 8.226562 10.642956 15
 3.063891 7.641549 10.705529 15
 2.198971 7.963866 10.162916 15
 2.881615 9.660957 12.542599 15
 2.809819 8.748355 11.558241 15
 2.774133 8.871576 11.645775 15
 2.906578 8.940297 11.846942 15
 2.207673 8.252357 10.460107 15
 2.991874 7.710558 10.702524 15
 2.507870 9.539163 12.047055 15
 3.474867 9.459817 12.934703 15
 3.348336 9.496619 12.844983 15
 3.496610 9.345310 12.841946 15
 2.705582 9.795480 12.501067 15
 2.643671 9.691219 12.334908 15
 2.218618 9.697988 11.916630 15
 2.203887 9.583989 11.787900 15
 2.222222 10.000000 12.222222 15
 2.083333 10.000000 12.083333 15
 2.155257 9.869110 12.024370 15
 3.463461 9.594523 13.058010 15
 3.323871 9.619709 12.943605 15
 3.404548 9.731742 13.136305 15
 2.944302 7.070577 10.014975 15
 4.083990 8.923274 13.007294 15
 3.944699 8.990733 12.935466 15
 3.989815 8.849579 12.839434 15
 2.388564 9.077755 11.466375 15
 2.793774 7.994339 10.788193 15
 2.686939 7.956045 10.643071 15
 2.792672 7.848142 10.640902 15
 3.910711 9.593875 13.504603 15
 3.754241 9.597116 13.351379 15
 3.162837 7.963872 11.126785 15
 3.595502 9.551279 13.146813 15
 3.532054 9.698666 13.230735 15
 3.990979 9.487936 13.478935 15
 2.930575 9.774561 12.705147 15
 3.023593 9.671023 12.694637 15
 3.057844 9.830734 12.888580 15
 2.740686 8.172968 10.913738 15
 3.850071 9.739372 13.589458 15
 2.023131 9.905187 11.928324 15
 2.416075 8.773869 11.190006 15
 2.439552 8.650907 11.090529 15
 3.181200 9.641978 12.823198 15
 3.292801 9.734212 13.027027 15
 3.139652 9.752715 12.892386 15
 2.344554 8.463660 10.808284 15
 2.138381 9.518966 11.657373 15
 2.699648 8.977465 11.677174 15
 3.649877 9.659216 13.309114 15
 2.929271 8.493922 11.423269 15
 3.358270 9.867215 13.225494 15
 3.282170 7.982706 11.264964 15
 2.035455 7.380548 9.416078 15
 2.150744 7.318586 9.469415 15
 2.112930 7.459446 9.572454 15
 2.626130 8.127058 10.753266 15
 2.983458 9.338620 12.322118 15
 2.891120 7.950875 10.842082 15
 2.079071 7.912491 9.991634 15
 2.120774 7.803924 9.924770 15
 2.261610 7.806186 10.067879 15
 2.006415 7.842937 9.849424 15
 3.537035 9.225267 12.762335 15
 3.434815 9.243501 12.678345 15
 3.455557 9.105533 12.561131 15
 3.018186 7.962210 10.980487 15
 3.026406 8.119363 11.145852 15
 2.177634 8.374730 10.552437 15
 3.333333 10.000000 13.333333 15
 1.908202 7.358087 9.266356 15
 2.020253 7.267929 9.288258 15
 2.586080 7.112348 9.698525 15
 3.532003 8.938999 12.471046 15
 3.589677 9.086582 12.676300 15
 4.105875 9.132679 13.238581 15
 4.226120 9.176881 13.403018 15
 2.897183 9.084881 11.982119 15
 3.007979 9.034867 12.042893 15
 3.109078 8.066141 11.175309 15
 4.056133 9.035362 13.091525 15
 2.860039 9.305372 12.165457 15
 2.709552 9.461353 12.170932 15
 3.910329 7.913257 11.823664 15
 3.764626 7.978360 11.743065 15
 3.758244 7.836802 11.595130 15
 2.126284 8.081773 10.208132 15
 2.057845 8.012397 10.070318 15
 2.556417 7.605742 10.162249 15
 4.001079 8.619575 12.620694 15
 2.440898 7.840679 10.281662 15
 2.551204 7.791159 10.342448 15
 2.592933 7.696841 10.289864 15
 3.815947 9.000827 12.816811 15
 3.019313 8.927312 11.946676 15
 3.172261 8.877253 12.049568 15
 3.142503 9.012094 12.154651 15
 2.794759 8.349617 11.144453 15
 3.055556 10.000000 13.055556 15
 2.958133 9.896220 12.854362 15
 3.209192 8.323812 11.533086 15
 3.142920 8.472559 11.615555 15
 3.251038 8.433955 11.685069 15
 3.384366 7.927693 11.312142 15
 3.338727 8.074183 11.412990 15
 3.722469 9.726491 13.448979 15
 1.751417 7.973350 9.724833 15
 2.660093 7.848749 10.508926 15
 2.213852 8.122400 10.336333 15
 3.640723 8.979976 12.620739 15
 2.811066 8.983169 11.794291 15
 1.944444 10.000000 11.944444 15
 1.805556 10.000000 11.805556 15
 1.903461 9.864985 11.768453 15
 2.084858 8.479953 10.564881 15
 2.011927 8.365358 10.377356 15
 2.078767 7.666364 9.745211 15
 2.034003 7.560336 9.594418 15
 2.176873 7.551620 9.728578 15
 3.081324 9.268017 12.349382 15
 3.041671 9.147126 12.188838 15
 1.860916 8.142054 10.003040 15
 2.010645 8.122132 10.132850 15
 2.029161 9.791840 11.821017 15
 2.864630 8.666462 11.531159 15
 3.269875 8.919956 12.189884 15
 3.349836 7.708594 11.058522 15
 2.578987 8.492351 11.071410 15
 2.055979 8.579137 10.635179 15
 3.715698 8.424626 12.140382 15
 2.559854 7.907807 10.467750 15
 2.580730 8.027303 10.608111 15
 2.019666 8.846539 10.866254 15
 3.263058 7.656786 10.919942 15
 2.508919 8.137167 10.646167 15
 2.074688 8.746455 10.821204 15
 1.500886 7.797293 9.298245 15
 1.501852 7.678027 9.179945 15
 1.463472 7.365602 8.829130 15
 1.630993 7.365955 8.997010 15
 1.532278 7.479693 9.012037 15
 3.711240 7.702978 11.414306 15
 3.668547 7.791031 11.459664 15
 1.973966 7.465500 9.439546 15
 1.894796 8.283788 10.178656 15
 1.767289 8.201658 9.969021 15
 3.995246 9.121576 13.116849 15
 2.916667 10.000000 12.916667 15
 2.777778 10.000000 12.777778 15
 2.830021 9.875804 12.705830 15
 3.155647 9.894982 13.050636 15
 1.878052 8.432953 10.311069 15
 1.928411 9.705174 11.633601 15
 2.075941 9.644622 11.720578 15
 2.359423 7.771815 10.131314 15
 3.345575 8.847124 12.192755 15
 1.675653 7.515348 9.191065 15
 1.761743 7.409687 9.171498 15
 1.793636 7.572269 9.365971 15
 1.862727 7.473275 9.336077 15
 2.197724 9.016069 11.213848 15
 2.107676 8.934102 11.041833 15
 2.247982 8.912095 11.160136 15
 2.158822 8.828609 10.987485 15
 2.209255 7.681920 9.891253 15
 3.312670 8.536125 11.848866 15
 3.555865 8.817285 12.373201 15
 2.503778 8.272970 10.776830 15
 3.713003 8.075606 11.788687 15
 3.734553 8.954844 12.689432 15
 1.786778 7.275660 9.062508 15
 3.394715 8.972930 12.367693 15
 2.106870 8.283138 10.390079 15
 2.412495 9.230323 11.642867 15
 2.304126 9.214216 11.518386 15
 3.096404 9.548437 12.644867 15
 3.224978 9.529265 12.754267 15
 1.976478 7.746914 9.723468 15
 1.396366 7.460019 8.856448 15
 2.228667 8.455847 10.684587 15
 4.127783 8.810086 12.937906 15
 4.209990 8.931535 13.141561 15
 2.911109 7.846158 10.757352 15
 3.608349 9.325408 12.933790 15
 3.505209 8.273164 11.778446 15
 3.356488 8.323774 11.680342 15
 3.612837 9.785014 13.397861 15
 2.686038 7.749208 10.435343 15
 3.651424 9.198225 12.849681 15
 4.106539 8.681413 12.787996 15
 4.030770 8.744462 12.775269 15
 2.723051 7.266156 9.989306 15
 2.940107 9.226430 12.166577 15
 2.070018 9.313602 11.383659 15
 2.171618 9.210989 11.382646 15
 2.361111 10.000000 12.361111 15
 2.288904 9.895423 12.184333 15
 2.436661 9.892396 12.329061 15
 3.087309 8.611466 11.698838 15
 3.625255 8.229438 11.854767 15
 3.361814 8.439623 11.801507 15
 1.952648 9.115278 11.067970 15
 3.249555 9.409588 12.659169 15
 3.618646 8.343740 11.962453 15
 1.887306 8.627846 10.515211 15
 2.162253 9.112062 11.274359 15
 2.058272 9.036160 11.094481 15
 2.015341 8.240054 10.255469 15
 1.451279 7.567094 9.018430 15
 2.709536 7.054564 9.764194 15
 2.684746 7.162374 9.847204 15
 3.823353 8.107009 11.930434 15
 3.919992 8.025494 11.945558 15
 3.963344 8.167383 12.130799 15
 3.801892 8.497043 12.298987 15
 2.263370 9.107443 11.370862 15
 3.182489 7.548820 10.731400 15
 3.205936 7.420095 10.626130 15
 1.943088 8.197810 10.140970 15
 2.301919 9.006825 11.308805 15
 3.240989 9.832903 13.073895 15
 2.288204 8.801998 11.090269 15
 1.955428 8.552999 10.508489 15
 2.819856 9.758503 12.578379 15
 1.977435 7.641033 9.618543 15
 3.580338 9.431469 13.011834 15
 3.721320 9.071493 12.792853 15
 3.862135 9.102349 12.964516 15
 3.279959 8.202665 11.482699 15
 3.221675 8.093870 11.315632 15
 3.125162 9.365748 12.490941 15
 2.366446 9.811171 12.177629 15
 3.785517 9.194808 12.980357 15
 4.174572 9.047209 13.221808 15
 3.603919 7.676636 11.280653 15
 2.018899 9.223706 11.242647 15
 2.126009 9.752971 11.878994 15
 1.974128 8.457271 10.431469 15
 2.698863 8.066895 10.765836 15
 3.155239 9.457389 12.612658 15
 2.460074 9.329252 11.789366 15
 2.400570 8.122841 10.523492 15
 1.575904 7.604143 9.180107 15
 1.824728 8.560706 10.385492 15
 3.408233 8.183514 11.591825 15
 3.320114 7.573364 10.893572 15
 3.305654 7.465668 10.771412 15
 2.064703 9.130988 11.195734 15
 1.750976 8.080727 9.831767 15
 1.642432 7.990613 9.633109 15
 1.644398 8.157336 9.801797 15
 3.194444 10.000000 13.194444 15
 2.347884 9.312045 11.659966 15
 2.633778 8.656528 11.290375 15
 3.745319 9.851737 13.597061 15
 2.269420 9.791131 12.060564 15
 3.733426 8.174810 11.908311 15
 1.703635 7.898520 9.602222 15
 3.451617 8.848603 12.300276 15
 3.451642 7.720843 11.172580 15
 3.008007 7.820422 10.828521 15
 2.898241 7.744026 10.642358 15
 1.842852 7.773014 9.615943 15
 1.878363 7.667325 9.545765 15
 3.916076 8.502984 12.419118 15
 1.782536 7.690072 9.472680 15
 3.256537 9.919020 13.175563 15
 2.552602 8.594373 11.147044 15
 3.408854 7.624741 11.033692 15
 2.113444 8.183642 10.297160 15
 3.375226 8.749762 12.125035 15
 3.278885 7.344421 10.623400 15
 1.919563 7.564223 9.483859 15
 1 2 3 
 4 5 6 
 7 8 9 
 10 7 9 
 11 12 13 
 14 5 4 
 15 16 17 
 18 19 20 
 21 20 19 
 2 22 3 
 23 24 25 
 26 27 28 
 29 28 27 
 22 30 3 
 31 32 33 
 34 35 4 
 36 37 38 
 36 39 40 
 41 42 43 
 12 44 13 
 45 46 47 
 48 49 50 
 42 51 43 
 45 47 52 
 15 53 16 
 54 55 56 
 57 58 59 
 60 61 62 
 38 37 63 
 64 65 66 
 67 68 69 
 70 71 30 
 72 73 74 
 75 76 77 
 71 3 30 
 78 59 58 
 79 80 81 
 82 73 83 
 72 83 73 
 84 32 31 
 85 65 64 
 82 86 73 
 87 25 24 
 88 89 77 
 90 77 89 
 91 92 93 
 48 94 95 
 56 55 96 
 97 98 99 
 100 101 102 
 102 101 103 
 88 77 76 
 86 104 105 
 91 106 92 
 35 14 4 
 70 30 107 
 108 86 105 
 109 99 98 
 110 65 85 
 110 85 111 
 112 62 61 
 113 41 43 
 114 115 116 
 117 116 115 
 118 73 119 
 120 121 122 
 123 124 125 
 82 126 127 
 128 129 130 
 51 69 43 
 102 75 131 
 69 68 43 
 84 132 17 
 113 25 41 
 133 134 135 
 131 75 136 
 128 137 129 
 133 135 115 
 117 115 135 
 138 139 140 
 10 140 139 
 50 49 141 
 142 143 144 
 87 24 145 
 146 145 24 
 147 148 56 
 75 77 149 
 150 40 39 
 123 125 151 
 120 152 121 
 36 153 39 
 154 155 156 
 157 81 158 
 159 160 161 
 108 162 119 
 154 163 155 
 48 50 164 
 165 8 166 
 8 167 166 
 159 168 160 
 169 119 162 
 15 17 170 
 90 149 77 
 171 172 111 
 173 171 111 
 174 125 175 
 15 175 125 
 176 177 17 
 72 71 11 
 178 179 180 
 176 17 16 
 118 74 73 
 172 181 182 
 183 182 181 
 60 19 61 
 109 127 99 
 184 99 127 
 185 186 187 
 90 187 186 
 23 25 188 
 189 190 191 
 117 192 193 
 57 59 194 
 195 196 181 
 117 135 197 
 198 199 200 
 54 201 55 
 36 40 37 
 202 193 192 
 179 203 180 
 146 204 205 
 206 207 208 
 147 209 148 
 210 33 32 
 41 25 211 
 87 211 25 
 195 212 196 
 92 213 9 
 150 9 213 
 46 214 47 
 215 194 59 
 82 127 104 
 216 217 218 
 219 201 54 
 220 141 49 
 189 191 221 
 222 223 163 
 224 163 223 
 128 225 137 
 222 137 225 
 226 227 228 
 85 228 227 
 38 229 230 
 95 94 175 
 70 12 71 
 206 182 207 
 72 3 71 
 159 231 168 
 46 232 214 
 17 132 170 
 216 233 234 
 13 44 235 
 236 237 228 
 113 188 25 
 108 119 86 
 238 239 134 
 240 167 241 
 230 229 242 
 174 151 125 
 13 83 11 
 72 11 83 
 185 243 186 
 84 17 32 
 51 244 69 
 67 69 245 
 159 161 148 
 246 247 248 
 249 250 163 
 72 74 251 
 222 163 250 
 88 252 89 
 226 173 227 
 15 170 95 
 67 95 170 
 107 218 217 
 253 1 254 
 255 254 1 
 90 186 256 
 257 258 259 
 260 40 106 
 146 24 204 
 117 193 116 
 261 262 200 
 39 263 264 
 264 263 265 
 215 59 266 
 21 266 59 
 70 107 217 
 48 245 49 
 17 177 32 
 69 49 245 
 255 1 251 
 60 267 266 
 202 268 193 
 195 116 193 
 269 130 129 
 270 191 190 
 249 163 271 
 236 272 237 
 18 247 61 
 73 86 119 
 154 271 163 
 273 167 240 
 274 275 276 
 277 278 231 
 279 280 281 
 216 234 217 
 110 282 65 
 283 65 282 
 75 102 76 
 103 76 102 
 284 137 285 
 286 180 203 
 10 139 258 
 226 228 237 
 92 9 287 
 258 288 259 
 260 37 40 
 66 259 288 
 40 213 106 
 150 39 264 
 242 229 194 
 173 111 227 
 87 145 166 
 21 59 289 
 184 127 126 
 147 56 290 
 60 266 19 
 157 291 34 
 90 89 187 
 29 27 292 
 253 293 156 
 294 156 293 
 157 295 81 
 193 268 212 
 78 296 59 
 294 297 156 
 157 34 298 
 120 299 300 
 200 199 208 
 301 302 303 
 283 259 65 
 304 248 305 
 165 287 8 
 9 8 287 
 216 306 233 
 284 307 308 
 133 309 134 
 198 200 262 
 310 311 312 
 261 200 313 
 258 139 288 
 103 292 76 
 314 307 278 
 286 315 316 
 222 250 137 
 253 317 1 
 318 288 139 
 319 320 321 
 322 321 320 
 323 324 325 
 326 325 324 
 279 281 327 
 236 149 272 
 100 131 328 
 15 125 53 
 57 194 229 
 75 149 329 
 54 56 330 
 236 329 149 
 247 331 61 
 90 332 149 
 286 276 315 
 257 7 258 
 10 258 7 
 319 302 320 
 333 320 302 
 236 228 334 
 87 166 211 
 231 278 335 
 113 336 188 
 337 188 336 
 206 338 339 
 206 339 182 
 279 223 340 
 301 303 341 
 36 38 230 
 117 197 192 
 340 223 225 
 277 342 35 
 185 343 344 
 345 221 191 
 107 30 281 
 22 281 30 
 226 346 173 
 277 231 342 
 347 101 348 
 349 52 47 
 349 47 196 
 183 196 47 
 319 303 302 
 270 254 350 
 185 187 343 
 18 248 247 
 226 237 351 
 352 353 252 
 284 129 137 
 82 354 126 
 66 65 259 
 48 95 245 
 283 355 240 
 51 240 355 
 356 357 31 
 15 95 175 
 138 328 131 
 358 359 360 
 150 361 9 
 10 9 361 
 39 153 263 
 347 62 362 
 348 101 363 
 67 245 95 
 79 364 80 
 260 55 37 
 201 37 55 
 187 353 343 
 110 111 365 
 347 362 366 
 183 47 214 
 157 158 367 
 195 193 212 
 89 252 353 
 323 368 369 
 323 369 324 
 124 360 125 
 1 3 251 
 22 327 281 
 257 241 167 
 220 355 282 
 283 282 355 
 370 278 307 
 371 341 303 
 372 126 373 
 261 310 262 
 374 375 376 
 79 81 295 
 76 292 377 
 337 378 188 
 159 148 209 
 374 247 375 
 246 375 247 
 374 331 247 
 108 105 379 
 380 379 105 
 284 285 381 
 215 266 267 
 23 188 382 
 6 205 204 
 138 140 328 
 265 328 140 
 383 208 207 
 109 104 127 
 59 296 289 
 23 325 384 
 85 64 228 
 157 385 291 
 386 164 198 
 94 164 386 
 265 140 264 
 279 387 280 
 70 44 12 
 165 145 93 
 174 175 94 
 140 361 264 
 195 171 388 
 114 116 346 
 178 180 359 
 23 384 204 
 310 312 262 
 337 31 357 
 389 256 390 
 391 153 392 
 242 392 153 
 75 329 136 
 255 350 254 
 220 393 141 
 253 156 155 
 150 264 361 
 394 360 359 
 389 390 395 
 48 164 94 
 185 344 396 
 265 263 348 
 391 348 263 
 10 361 140 
 109 105 104 
 220 282 393 
 391 263 153 
 304 397 144 
 356 398 357 
 114 351 395 
 389 395 351 
 185 396 243 
 394 16 53 
 286 399 180 
 172 365 111 
 314 278 400 
 113 43 68 
 195 181 171 
 238 396 239 
 82 83 354 
 201 219 401 
 283 241 259 
 224 155 163 
 114 395 115 
 133 115 395 
 402 339 338 
 113 68 403 
 67 132 403 
 156 297 404 
 201 63 37 
 319 152 405 
 314 385 406 
 183 214 207 
 198 262 312 
 347 348 407 
 391 407 348 
 85 227 111 
 157 298 295 
 92 287 93 
 100 102 131 
 294 293 190 
 337 357 378 
 408 379 409 
 410 357 398 
 210 177 316 
 13 354 83 
 150 213 40 
 154 156 404 
 322 233 306 
 34 4 298 
 326 298 4 
 173 388 171 
 242 153 230 
 36 230 153 
 224 327 2 
 273 240 42 
 51 42 240 
 269 411 412 
 413 412 411 
 408 409 143 
 165 166 145 
 414 261 313 
 183 181 196 
 82 104 86 
 67 170 132 
 380 409 379 
 38 63 221 
 319 321 152 
 224 2 317 
 172 182 339 
 319 405 303 
 71 12 11 
 91 96 106 
 103 366 292 
 29 292 366 
 176 316 177 
 79 295 324 
 326 324 295 
 410 398 364 
 322 320 233 
 333 233 320 
 84 31 415 
 337 415 31 
 206 208 199 
 357 368 378 
 183 207 182 
 67 403 68 
 84 403 132 
 100 363 101 
 238 134 309 
 189 221 63 
 84 415 403 
 113 403 336 
 215 392 194 
 242 194 392 
 176 399 316 
 286 316 399 
 270 190 293 
 383 207 214 
 311 151 312 
 174 312 151 
 273 166 167 
 114 346 351 
 226 351 346 
 21 19 266 
 358 178 359 
 146 416 145 
 224 223 327 
 279 327 223 
 220 244 355 
 124 358 360 
 257 8 7 
 284 381 307 
 370 307 381 
 371 303 405 
 280 306 218 
 172 171 181 
 103 101 366 
 347 366 101 
 120 405 152 
 326 384 325 
 260 96 55 
 18 61 19 
 349 417 52 
 349 196 212 
 391 267 407 
 356 31 33 
 180 399 418 
 374 419 331 
 389 332 256 
 349 268 417 
 202 417 268 
 253 155 317 
 88 76 377 
 314 400 385 
 161 297 330 
 54 330 297 
 176 418 399 
 26 28 376 
 374 376 28 
 277 385 400 
 270 293 254 
 283 240 241 
 120 122 299 
 277 291 385 
 142 144 397 
 189 63 401 
 201 401 63 
 165 93 287 
 116 388 346 
 157 367 385 
 121 420 122 
 174 94 386 
 318 421 334 
 236 334 421 
 224 317 155 
 206 199 338 
 50 338 199 
 91 290 96 
 56 96 290 
 374 28 419 
 29 419 28 
 220 49 244 
 257 259 241 
 92 106 213 
 389 272 332 
 280 218 281 
 370 335 278 
 142 20 422 
 21 422 20 
 265 348 363 
 408 296 379 
 273 211 166 
 169 423 424 
 51 355 244 
 200 208 313 
 383 313 208 
 78 162 379 
 108 379 162 
 128 425 340 
 426 340 425 
 174 386 312 
 79 369 364 
 410 364 369 
 179 274 203 
 118 119 424 
 169 424 119 
 195 388 116 
 274 276 203 
 198 312 386 
 216 218 306 
 18 20 305 
 257 167 8 
 14 35 342 
 326 4 384 
 311 123 151 
 90 256 332 
 286 203 276 
 88 427 252 
 318 334 288 
 66 288 334 
 110 365 393 
 60 407 267 
 78 379 296 
 186 309 390 
 142 397 20 
 198 164 199 
 50 199 164 
 56 148 330 
 38 221 229 
 145 416 93 
 13 235 373 
 402 393 365 
 118 424 191 
 345 191 424 
 29 366 362 
 121 152 428 
 345 423 229 
 57 229 423 
 118 350 74 
 255 74 350 
 323 325 382 
 23 382 325 
 232 414 429 
 146 205 430 
 147 430 205 
 255 251 74 
 91 93 416 
 168 231 335 
 391 392 267 
 133 390 309 
 277 400 278 
 372 373 235 
 159 342 231 
 158 406 367 
 228 64 334 
 408 143 431 
 142 431 143 
 408 431 289 
 21 289 422 
 294 219 297 
 345 424 423 
 29 362 419 
 408 289 296 
 109 98 105 
 380 105 98 
 126 354 373 
 186 390 256 
 89 353 187 
 294 190 401 
 88 377 427 
 389 237 272 
 66 334 64 
 112 362 62 
 172 339 365 
 326 295 298 
 222 225 223 
 118 191 350 
 270 350 191 
 152 321 428 
 27 427 377 
 413 411 308 
 23 204 24 
 402 365 339 
 232 429 214 
 18 305 248 
 249 432 285 
 370 285 432 
 60 62 407 
 347 407 62 
 318 139 433 
 138 433 139 
 279 340 387 
 345 229 221 
 389 351 237 
 112 61 331 
 138 131 433 
 136 433 131 
 380 434 409 
 69 244 49 
 107 281 218 
 383 214 429 
 6 5 205 
 161 404 297 
 260 106 96 
 410 369 368 
 349 212 268 
 238 243 396 
 133 395 390 
 41 211 42 
 273 42 211 
 79 324 369 
 54 297 219 
 380 98 434 
 97 434 98 
 371 405 300 
 402 141 393 
 294 401 219 
 13 373 354 
 322 435 321 
 426 321 435 
 125 360 53 
 394 53 360 
 112 419 362 
 27 377 292 
 110 393 282 
 318 433 421 
 136 421 433 
 304 305 397 
 20 397 305 
 410 368 357 
 136 329 421 
 236 421 329 
 91 416 430 
 215 267 392 
 147 205 5 
 385 367 406 
 180 418 359 
 269 412 420 
 122 420 412 
 426 428 321 
 72 251 3 
 169 58 423 
 394 359 418 
 426 387 340 
 188 378 382 
 323 382 378 
 210 32 177 
 189 401 190 
 147 290 430 
 128 340 225 
 22 2 327 
 154 404 160 
 161 160 404 
 186 243 309 
 253 254 293 
 169 162 58 
 78 58 162 
 147 5 209 
 112 331 419 
 323 378 368 
 370 381 285 
 161 330 148 
 173 346 388 
 149 332 272 
 265 363 328 
 100 328 363 
 137 250 285 
 249 285 250 
 352 343 353 
 238 309 243 
 284 411 129 
 402 338 141 
 50 141 338 
 403 415 336 
 154 160 271 
 168 271 160 
 120 300 405 
 394 418 16 
 280 435 306 
 322 306 435 
 176 16 418 
 14 209 5 
 383 429 313 
 6 384 4 
 284 308 411 
 414 313 429 
 128 130 425 
 121 425 130 
 146 430 416 
 337 336 415 
 159 209 342 
 14 342 209 
 6 204 384 
 91 430 290 
 1 317 2 
 269 129 411 
 121 130 420 
 121 428 425 
 370 432 335 
 168 335 432 
 142 422 431 
 289 431 422 
 57 423 58 
 426 435 387 
 426 425 428 
 277 35 291 
 168 432 271 
 249 271 432 
 269 420 130 
 34 291 35 
 280 387 435 
