TITLE      =  "2D FE Unstructured grid data" 
VARIABLES = "X", "Y", "U", "Dom" 
ZONE T="P1", F=FEPOINT, N= 451 E= 824  ET=TRIANGLE 
 2.317473 7.078120 9.395679 14
 2.417764 7.184912 9.602764 14
 2.250142 7.195615 9.445844 14
 2.313748 7.309247 9.623081 14
 3.232097 6.046488 9.278657 14
 3.313665 6.154677 9.468418 14
 3.153175 6.102249 9.255500 14
 3.173663 6.202900 9.376638 14
 2.064463 5.800741 7.865275 14
 1.933685 5.698942 7.632694 14
 2.098961 5.691370 7.790401 14
 3.309231 5.982487 9.291788 14
 3.141533 5.941434 9.083034 14
 1.945885 5.835670 7.781625 14
 3.291459 5.875754 9.167281 14
 1.597471 5.537529 7.135052 14
 1.534143 5.440955 6.975147 14
 1.696365 5.417908 7.114329 14
 2.866452 6.026040 8.892567 14
 2.981438 5.978270 8.959786 14
 2.938483 6.124635 9.063195 14
 1.605105 5.323936 6.929091 14
 3.052152 6.061598 9.113826 14
 2.395749 6.336443 8.732272 14
 2.472568 6.425853 8.898505 14
 2.316118 6.431808 8.748007 14
 1.470755 6.498024 7.968846 14
 1.542161 6.396385 7.938615 14
 1.577821 6.558721 8.136604 14
 1.659293 6.444950 8.104312 14
 2.973837 5.854323 8.828234 14
 2.857029 5.780483 8.637586 14
 3.046258 5.754431 8.800758 14
 2.381827 6.524349 8.906260 14
 2.916168 5.671409 8.587650 14
 2.815677 6.244118 9.059879 14
 2.974875 6.266385 9.241341 14
 2.871979 6.348311 9.220366 14
 2.203551 6.985586 9.189224 14
 2.338772 6.935942 9.274799 14
 2.464019 7.022563 9.486672 14
 1.556666 6.985476 8.542207 14
 1.596790 6.824622 8.421488 14
 1.680047 6.992041 8.672155 14
 1.753950 6.896599 8.650616 14
 1.723917 5.896436 7.620418 14
 1.803463 6.010889 7.814420 14
 1.660720 6.017687 7.678472 14
 1.720692 6.157330 7.878090 14
 1.512895 5.982413 7.495367 14
 1.443898 6.091654 7.535612 14
 1.365815 5.952167 7.318036 14
 1.321293 6.079159 7.400507 14
 0.698432 5.772837 6.471293 14
 0.575890 5.792314 6.368224 14
 0.596135 5.650707 6.246863 14
 2.615458 6.362182 8.977720 14
 2.774981 6.409706 9.184769 14
 2.621361 6.497158 9.118609 14
 1.786778 7.275660 9.062508 14
 1.840102 7.137749 8.977920 14
 1.913435 7.227174 9.140687 14
 2.088911 6.516935 8.605920 14
 2.178055 6.622899 8.801035 14
 2.038125 6.684228 8.722428 14
 2.107111 6.010770 8.117955 14
 2.195521 6.087101 8.282698 14
 2.088281 6.169971 8.258327 14
 0.737325 5.669270 6.406620 14
 2.005201 5.571858 7.577126 14
 1.674321 7.205916 8.880303 14
 0.304373 6.188498 6.492886 14
 0.458075 6.124873 6.582966 14
 0.439970 6.285912 6.725901 14
 1.998426 6.103631 8.102135 14
 3.301613 6.552069 9.853763 14
 3.456605 6.579809 10.036489 14
 3.350997 6.695115 10.046201 14
 0.972894 5.614025 6.586951 14
 0.889425 5.497691 6.387140 14
 1.003072 5.424653 6.427756 14
 1.696916 6.314753 8.011739 14
 1.592284 6.279613 7.871965 14
 1.954613 6.582535 8.537228 14
 3.131414 6.406967 9.538461 14
 2.996739 6.405838 9.402657 14
 3.095015 6.292739 9.387830 14
 3.203882 5.822182 9.026142 14
 3.001331 5.595352 8.596750 14
 3.073294 5.462520 8.535877 14
 3.104973 5.640267 8.745302 14
 2.639488 5.494450 8.133996 14
 2.767023 5.534519 8.301610 14
 2.638286 5.646004 8.284361 14
 2.791103 5.659033 8.450212 14
 1.590164 6.121782 7.712012 14
 3.199978 6.629252 9.829315 14
 1.551207 7.285677 8.836948 14
 1.564610 7.186412 8.751086 14
 3.369663 6.458298 9.828040 14
 3.481136 6.425205 9.906419 14
 1.108239 5.522227 6.630504 14
 2.740520 6.528897 9.269502 14
 1.630993 7.365955 8.997010 14
 1.716988 6.784972 8.502035 14
 0.849315 6.312347 7.161696 14
 0.956951 6.196434 7.153426 14
 0.972829 6.363189 7.336058 14
 2.149197 6.750058 8.899336 14
 1.264026 5.770383 7.034455 14
 1.328080 5.670756 6.998879 14
 1.360249 5.814812 7.175108 14
 2.747687 5.279744 8.027494 14
 2.739348 5.145971 7.885377 14
 2.883681 5.235128 8.118871 14
 0.833166 6.086993 6.920192 14
 0.965494 6.052625 7.018157 14
 1.098112 6.129204 7.227364 14
 0.210583 5.397940 5.608529 14
 0.354821 5.390138 5.744972 14
 0.249973 5.502886 5.752867 14
 1.258960 7.182138 8.441148 14
 1.125977 7.093374 8.219398 14
 1.247292 7.029595 8.276939 14
 3.351527 6.339208 9.690808 14
 3.222589 6.303521 9.526185 14
 2.369568 5.111186 7.480807 14
 2.405827 5.246504 7.652388 14
 2.282167 5.236704 7.518927 14
 1.118547 7.236432 8.355031 14
 3.036210 5.285058 8.321326 14
 2.958092 5.380297 8.338450 14
 1.730406 7.084311 8.814791 14
 2.482970 5.945004 8.428047 14
 2.594559 5.844851 8.439486 14
 2.656853 5.952880 8.609810 14
 0.596528 6.329490 6.926045 14
 0.575201 6.206668 6.781891 14
 2.944302 7.070577 10.014975 14
 2.884941 6.941597 9.826640 14
 3.017774 6.951748 9.969606 14
 2.956478 6.808999 9.765566 14
 2.499365 5.572994 8.072432 14
 2.526701 5.421016 7.947784 14
 1.189196 5.700500 6.889739 14
 1.463800 6.891809 8.355677 14
 2.521891 6.696742 9.218724 14
 2.417243 6.654553 9.071881 14
 2.566158 6.600378 9.166618 14
 1.819209 5.788214 7.607487 14
 2.477557 6.542108 9.019751 14
 2.266217 6.002661 8.268954 14
 2.244823 5.896971 8.141870 14
 2.139534 5.880462 8.020068 14
 0.616793 5.524652 6.141464 14
 0.753121 5.474871 6.228014 14
 0.704196 5.575406 6.279625 14
 1.783377 6.277089 8.060538 14
 0.239582 5.637921 5.877510 14
 0.279358 5.768495 6.047862 14
 0.178162 5.768868 5.947035 14
 1.249943 5.883609 7.133598 14
 0.356925 5.562954 5.919889 14
 0.360935 5.703599 6.064544 14
 2.573590 6.040870 8.614536 14
 0.323862 6.067037 6.390914 14
 2.505281 5.722375 8.227729 14
 2.360957 5.697104 8.058136 14
 1.126392 6.947610 8.074045 14
 0.987395 6.885596 7.873033 14
 1.114545 6.819599 7.934192 14
 1.015840 6.738435 7.754317 14
 2.373101 5.553058 7.926230 14
 0.110544 5.656777 5.767323 14
 1.346684 6.950495 8.297238 14
 1.439220 7.024059 8.463345 14
 1.345919 7.083216 8.429195 14
 0.635702 5.069196 5.704917 14
 0.589610 5.172690 5.762320 14
 0.478251 5.133544 5.611815 14
 3.224849 6.748847 9.973780 14
 2.688408 6.845854 9.534355 14
 2.552580 6.887485 9.440156 14
 2.618056 6.741405 9.359546 14
 0.751689 6.471792 7.223514 14
 0.692328 6.567451 7.259811 14
 0.661663 6.433148 7.094840 14
 2.196571 6.194947 8.391597 14
 2.346585 6.143816 8.490476 14
 2.282090 6.289904 8.572074 14
 2.958561 5.491240 8.449864 14
 1.051319 6.259661 7.311026 14
 1.908202 7.358087 9.266356 14
 2.862174 6.578849 9.441107 14
 2.968595 6.656877 9.625559 14
 2.851676 6.706321 9.558081 14
 1.073092 5.746907 6.820040 14
 0.953502 5.786160 6.739697 14
 1.210548 6.020026 7.230621 14
 2.215323 5.675426 7.890819 14
 2.220497 5.793075 8.013641 14
 3.182012 5.557523 8.739597 14
 2.586080 7.112348 9.698525 14
 2.334530 5.834524 8.169132 14
 1.070193 6.356997 7.427236 14
 1.158510 6.252482 7.411043 14
 1.198241 6.407594 7.605885 14
 1.288719 6.310036 7.598809 14
 0.732483 6.352259 7.084776 14
 0.721417 6.205487 6.926930 14
 0.960186 5.918945 6.879169 14
 1.060478 5.867939 6.928454 14
 1.075357 5.997949 7.073347 14
 0.460374 5.629442 6.089830 14
 2.146028 5.581932 7.728027 14
 0.344523 5.224209 5.568745 14
 0.249671 5.295481 5.545160 14
 0.196422 5.156919 5.353344 14
 3.277380 6.882189 10.159657 14
 3.118363 6.849500 9.967951 14
 3.163727 6.971000 10.134822 14
 1.371875 6.417456 7.789391 14
 1.438828 6.301654 7.740541 14
 0.623057 5.404192 6.027266 14
 2.363943 6.802744 9.166781 14
 2.245891 6.841384 9.087358 14
 1.884973 6.114752 7.999794 14
 2.437755 6.885254 9.323101 14
 0.000000 5.555555 5.555555 14
 0.000000 5.416667 5.416667 14
 0.132429 5.509089 5.641521 14
 0.840212 6.200315 7.040561 14
 3.245531 7.230278 10.475900 14
 3.091022 7.181091 10.272204 14
 3.219912 7.099728 10.319732 14
 1.944062 6.806640 8.750774 14
 2.054027 6.924795 8.978904 14
 1.886681 6.919601 8.806357 14
 1.946103 7.028942 8.975124 14
 2.574666 7.007318 9.582076 14
 0.759355 5.356022 6.115396 14
 1.473827 5.352179 6.826052 14
 1.914454 5.282464 7.196974 14
 2.052919 5.351081 7.404059 14
 1.933411 5.425395 7.358868 14
 0.844892 5.723430 6.568353 14
 1.106314 5.636593 6.742943 14
 1.959572 5.977446 7.937086 14
 0.821548 5.858727 6.680305 14
 1.241030 6.163182 7.404263 14
 1.368997 6.188184 7.557239 14
 1.492842 5.722325 7.215220 14
 0.492459 5.721128 6.213603 14
 0.495417 5.508823 6.004253 14
 2.651590 6.943803 9.595482 14
 3.081839 7.047856 10.129785 14
 2.493084 6.794065 9.287240 14
 1.862262 6.226519 8.088858 14
 1.912050 6.310066 8.222196 14
 1.203689 5.589727 6.793453 14
 1.978818 6.434281 8.413177 14
 2.142704 5.215140 7.357899 14
 2.197273 5.369653 7.566989 14
 3.185332 5.716519 8.901925 14
 0.000000 5.972222 5.972222 14
 0.116808 5.897958 6.014772 14
 0.111832 6.061011 6.172846 14
 1.599322 5.826808 7.426189 14
 1.484004 5.872913 7.356977 14
 1.854272 5.900525 7.754863 14
 0.823822 5.596280 6.420127 14
 1.853078 6.394500 8.247650 14
 2.843946 5.346820 8.190829 14
 3.064560 6.175085 9.239726 14
 1.758602 5.662060 7.420724 14
 1.720629 5.535300 7.255985 14
 1.859047 5.557207 7.416316 14
 1.364042 6.804653 8.168761 14
 0.498943 5.377163 5.876122 14
 2.515239 6.158843 8.674159 14
 2.660096 6.213124 8.873298 14
 2.510188 6.287699 8.797967 14
 2.019053 5.225721 7.244833 14
 3.387095 5.854040 9.241202 14
 0.420228 6.023907 6.444151 14
 0.755263 5.973875 6.729164 14
 0.867131 5.978233 6.845395 14
 1.490665 6.790922 8.281652 14
 0.957793 6.520961 7.478795 14
 1.070850 6.471199 7.542096 14
 2.525452 5.281466 7.806980 14
 2.634807 5.354449 7.989322 14
 0.717251 6.064655 6.781932 14
 1.753081 6.410414 8.163565 14
 0.105653 5.389453 5.495111 14
 3.064626 6.488285 9.552991 14
 2.142537 6.862159 9.004774 14
 2.076327 7.058541 9.134953 14
 1.204557 7.331199 8.535810 14
 1.762708 6.517904 8.280681 14
 1.701525 6.607427 8.309024 14
 0.441826 5.283202 5.725044 14
 2.190225 7.101747 9.292054 14
 1.372863 5.437885 6.810791 14
 1.260954 5.351810 6.612804 14
 1.372741 5.314714 6.687499 14
 1.495888 6.199917 7.695869 14
 2.811126 6.830569 9.641786 14
 0.462606 5.832233 6.294858 14
 0.344942 5.846585 6.191543 14
 2.411268 6.239966 8.651318 14
 1.333971 6.646914 7.980946 14
 1.205009 6.635832 7.840894 14
 1.276242 6.520332 7.796629 14
 0.556224 5.274645 5.830884 14
 0.997649 7.156612 8.154304 14
 1.246031 5.221209 6.467281 14
 2.411756 5.449990 7.861812 14
 2.181320 6.395429 8.576828 14
 2.078305 6.379520 8.457900 14
 1.136453 5.394846 6.531332 14
 1.235183 5.467110 6.702333 14
 1.040813 7.011794 8.052654 14
 2.465141 6.063437 8.528652 14
 1.383168 6.525343 7.908574 14
 1.478751 6.592216 8.071028 14
 1.444627 6.706367 8.151056 14
 2.060019 6.808969 8.869066 14
 0.955230 5.303747 6.259007 14
 0.838786 5.261732 6.100546 14
 0.989375 5.185784 6.175187 14
 3.315720 5.737246 9.053034 14
 2.717383 6.311791 9.029251 14
 2.796990 6.126307 8.923373 14
 0.869467 5.131529 6.001020 14
 0.718892 5.204931 5.923841 14
 0.769390 5.051095 5.820507 14
 0.000000 5.694445 5.694445 14
 2.772497 6.631569 9.404150 14
 2.703638 6.067058 8.770773 14
 2.384405 6.022806 8.407284 14
 0.671950 5.881313 6.553285 14
 1.334587 7.310613 8.645266 14
 2.269654 6.706133 8.975874 14
 0.220288 5.997429 6.217729 14
 1.812431 5.456323 7.268811 14
 2.626641 5.202529 7.829229 14
 1.458034 5.570761 7.028845 14
 1.319570 5.547248 6.866863 14
 2.444946 5.828526 8.273543 14
 2.020253 7.267929 9.288258 14
 3.090335 6.712043 9.802466 14
 2.709536 7.054564 9.764194 14
 2.821318 7.035058 9.856471 14
 2.808614 7.168708 9.977407 14
 1.632814 5.711406 7.344278 14
 1.065321 5.294051 6.359401 14
 1.127223 5.153876 6.281132 14
 1.171018 5.288370 6.459424 14
 3.414002 6.824035 10.238119 14
 3.397062 6.972573 10.369724 14
 0.661354 5.299221 5.960591 14
 2.200501 5.493474 7.694043 14
 2.304739 5.460426 7.765230 14
 0.849335 6.431480 7.280850 14
 1.762124 5.277796 7.039972 14
 1.837731 5.358323 7.196110 14
 2.089673 5.470119 7.559854 14
 0.831033 6.551325 7.382391 14
 1.236438 6.883706 8.120198 14
 2.327956 5.344021 7.672040 14
 0.605128 6.093863 6.699015 14
 2.208205 6.496840 8.705126 14
 1.164663 6.531327 7.696040 14
 1.860227 6.496627 8.356928 14
 2.438673 5.348428 7.787163 14
 2.771141 5.990453 8.761671 14
 2.741679 5.866411 8.608160 14
 2.704592 5.756721 8.461388 14
 0.138369 5.285372 5.423746 14
 2.974607 6.528362 9.503053 14
 0.000000 5.138889 5.138889 14
 0.106432 5.066491 5.172927 14
 0.085142 5.194705 5.279852 14
 1.542193 6.684094 8.226351 14
 2.870167 6.466660 9.336905 14
 2.506077 5.152360 7.658496 14
 1.644509 6.699808 8.344384 14
 1.463472 7.365602 8.829130 14
 1.456548 7.228272 8.684886 14
 1.516216 7.100515 8.616801 14
 1.147493 5.921739 7.069277 14
 1.598852 5.928372 7.527286 14
 3.340920 7.072015 10.413026 14
 3.440204 7.103339 10.543630 14
 1.708726 5.785487 7.494271 14
 0.000000 6.111111 6.111111 14
 0.144028 6.180555 6.324588 14
 0.220797 6.099459 6.320263 14
 2.359648 5.921749 8.281467 14
 2.021545 6.303704 8.325328 14
 0.519351 6.007927 6.527297 14
 1.226046 6.755610 7.981711 14
 1.420698 7.120935 8.541692 14
 1.071071 6.610753 7.681870 14
 1.128930 6.714970 7.843948 14
 0.000000 5.277778 5.277778 14
 2.676126 6.621308 9.297521 14
 2.110897 7.181079 9.292060 14
 2.150744 7.318586 9.469415 14
 2.266949 5.578924 7.845940 14
 1.996131 7.145063 9.141266 14
 3.350084 7.183947 10.534126 14
 2.043949 5.901158 7.945177 14
 3.075473 6.590240 9.665799 14
 2.613141 6.119974 8.733197 14
 0.546788 5.903909 6.450716 14
 0.424369 5.926633 6.351016 14
 2.885120 5.567744 8.452930 14
 2.275002 6.571133 8.846220 14
 0.000000 5.833333 5.833333 14
 2.614580 5.068915 7.683554 14
 2.861234 5.904022 8.765329 14
 3.277499 6.994697 10.272285 14
 2.606400 5.743266 8.349739 14
 2.761153 6.941907 9.703152 14
 3.316807 6.787547 10.104441 14
 2.755666 5.402276 8.158004 14
 3.170548 6.517179 9.687806 14
 2.874966 5.450286 8.325315 14
 0.866498 5.386453 6.252976 14
 1.824299 6.803420 8.627801 14
 0.075243 5.763889 5.839139 14
 3.256470 6.430376 9.686923 14
 2.138969 6.287920 8.426968 14
 1.888285 6.699817 8.588179 14
 1.765391 6.700409 8.465873 14
 1.363342 7.185035 8.548436 14
 1.811099 7.010266 8.821436 14
 0.320373 5.961413 6.281801 14
 3.243331 5.637528 8.880928 14
 0.935367 6.645044 7.580453 14
 0.243322 5.873458 6.116789 14
 1.823849 6.603411 8.427331 14
 1.556930 5.627866 7.184850 14
 1.164038 5.815179 6.979260 14
 2.733116 6.724302 9.457506 14
 1.654394 5.613462 7.267911 14
 1.623212 7.089769 8.713044 14
 0.633783 5.986217 6.620023 14
 1.962033 6.206042 8.168146 14
 1 2 3 
 3 2 4 
 5 6 7 
 6 8 7 
 9 10 11 
 12 5 13 
 14 10 9 
 15 12 13 
 16 17 18 
 19 20 21 
 17 22 18 
 20 23 21 
 24 25 26 
 27 28 29 
 29 28 30 
 31 32 33 
 26 25 34 
 32 35 33 
 36 37 38 
 36 21 37 
 39 40 1 
 41 1 40 
 42 43 44 
 45 44 43 
 46 47 48 
 49 48 47 
 50 51 52 
 53 52 51 
 54 55 56 
 57 58 59 
 60 61 62 
 63 64 65 
 66 67 68 
 54 56 69 
 70 11 10 
 60 71 61 
 31 33 13 
 72 73 74 
 41 2 1 
 75 66 68 
 23 13 7 
 76 77 78 
 13 5 7 
 79 80 81 
 49 82 83 
 84 63 65 
 85 86 87 
 37 87 86 
 13 33 88 
 89 90 91 
 92 93 94 
 95 94 93 
 49 83 96 
 76 78 97 
 98 99 71 
 76 100 77 
 101 77 100 
 79 81 102 
 58 103 59 
 104 98 71 
 45 43 105 
 106 107 108 
 109 65 64 
 110 111 112 
 113 114 115 
 116 117 107 
 118 107 117 
 6 5 12 
 119 120 121 
 122 123 124 
 6 125 126 
 127 128 129 
 122 130 123 
 131 90 132 
 133 61 71 
 134 135 136 
 137 74 138 
 6 126 8 
 139 140 141 
 142 141 140 
 92 143 144 
 110 145 111 
 60 104 71 
 42 146 43 
 147 148 149 
 14 150 10 
 149 148 151 
 152 66 153 
 154 153 66 
 155 156 157 
 49 158 82 
 159 160 161 
 112 162 110 
 52 162 112 
 159 163 164 
 134 136 165 
 72 166 73 
 167 168 143 
 169 170 171 
 172 171 170 
 173 143 168 
 159 161 174 
 175 176 177 
 175 177 124 
 178 179 180 
 181 97 78 
 182 183 184 
 185 186 187 
 188 189 190 
 120 163 121 
 89 191 90 
 107 192 108 
 60 62 193 
 194 195 196 
 79 197 198 
 53 199 52 
 200 201 11 
 11 201 9 
 92 94 143 
 90 202 91 
 41 203 2 
 204 201 168 
 205 206 207 
 208 207 206 
 106 209 210 
 211 212 213 
 164 163 214 
 70 215 11 
 200 168 201 
 216 217 218 
 181 219 220 
 221 220 219 
 211 213 117 
 216 120 217 
 119 217 120 
 101 100 125 
 28 222 223 
 224 156 155 
 225 40 226 
 49 47 227 
 28 27 222 
 41 228 183 
 229 230 231 
 106 210 232 
 37 86 38 
 131 132 115 
 233 234 235 
 50 96 51 
 236 237 238 
 239 238 237 
 41 183 240 
 152 189 67 
 188 67 189 
 241 156 224 
 22 17 242 
 243 244 245 
 79 198 246 
 39 226 40 
 188 68 67 
 79 247 197 
 75 227 248 
 54 246 249 
 208 250 251 
 47 248 227 
 252 112 111 
 253 56 55 
 254 163 120 
 182 255 183 
 139 256 234 
 147 257 148 
 257 225 148 
 258 259 158 
 208 206 250 
 260 111 145 
 82 30 83 
 83 30 28 
 118 192 107 
 84 261 63 
 262 263 244 
 264 88 33 
 265 266 267 
 252 268 269 
 46 270 47 
 79 246 271 
 259 272 158 
 115 132 273 
 23 274 21 
 275 276 277 
 175 278 146 
 254 120 279 
 221 141 220 
 79 271 80 
 275 277 10 
 31 13 20 
 23 20 13 
 280 281 282 
 57 282 281 
 262 244 283 
 243 283 244 
 15 284 12 
 142 196 195 
 285 73 166 
 116 286 287 
 146 278 288 
 289 108 290 
 291 292 144 
 92 144 292 
 116 293 286 
 14 270 150 
 50 48 96 
 272 294 158 
 230 295 231 
 229 231 174 
 85 296 86 
 109 226 297 
 49 227 258 
 39 298 237 
 122 299 130 
 300 301 30 
 216 302 120 
 301 29 30 
 39 1 303 
 50 52 269 
 116 107 232 
 106 232 107 
 74 73 138 
 304 305 306 
 169 124 123 
 307 251 51 
 15 13 88 
 275 10 150 
 142 308 196 
 253 309 164 
 310 164 309 
 75 248 66 
 189 311 190 
 312 313 314 
 216 180 302 
 315 302 180 
 316 123 130 
 305 317 306 
 173 318 143 
 144 143 318 
 319 63 320 
 321 322 102 
 260 102 322 
 304 306 242 
 54 69 246 
 169 323 170 
 280 189 324 
 325 326 312 
 327 312 326 
 109 297 328 
 329 330 331 
 15 88 332 
 333 36 38 
 58 333 38 
 137 210 209 
 36 281 334 
 252 269 112 
 142 220 141 
 335 336 337 
 178 337 336 
 338 229 174 
 142 140 308 
 194 196 339 
 49 258 158 
 340 334 281 
 152 341 189 
 335 331 330 
 54 249 342 
 280 311 189 
 122 343 299 
 225 226 344 
 345 267 266 
 208 222 207 
 346 277 276 
 113 292 347 
 291 347 292 
 252 111 348 
 348 349 304 
 111 349 348 
 204 168 350 
 62 351 193 
 254 279 224 
 142 352 220 
 353 354 355 
 139 355 354 
 252 356 268 
 304 322 305 
 321 81 357 
 329 357 81 
 358 317 359 
 358 359 357 
 360 361 219 
 70 10 277 
 336 362 179 
 363 263 364 
 183 257 184 
 321 305 322 
 41 40 228 
 57 333 58 
 151 34 25 
 106 365 209 
 185 209 365 
 82 158 294 
 167 143 94 
 63 261 320 
 207 222 314 
 239 237 298 
 178 336 179 
 307 96 83 
 89 33 35 
 366 367 18 
 307 223 251 
 241 336 330 
 335 330 336 
 363 368 263 
 185 369 186 
 15 332 284 
 169 370 124 
 175 124 370 
 157 69 56 
 211 249 198 
 246 198 249 
 139 354 140 
 371 364 263 
 241 224 362 
 116 210 293 
 372 293 210 
 167 350 168 
 319 373 63 
 286 342 249 
 325 312 314 
 116 232 210 
 244 263 368 
 272 259 261 
 374 314 313 
 272 261 375 
 372 210 138 
 137 138 210 
 244 368 245 
 70 245 368 
 291 144 376 
 19 334 377 
 24 26 190 
 319 190 26 
 378 135 379 
 321 359 305 
 142 195 352 
 260 349 111 
 346 18 367 
 315 179 362 
 218 217 380 
 315 180 179 
 39 237 297 
 194 381 195 
 118 206 192 
 315 362 224 
 109 344 226 
 304 242 17 
 382 383 384 
 43 288 385 
 154 9 201 
 307 83 223 
 28 223 83 
 225 344 148 
 241 362 336 
 58 386 103 
 291 128 387 
 205 290 108 
 254 224 155 
 43 385 388 
 316 323 123 
 194 103 386 
 389 98 104 
 315 224 279 
 159 164 160 
 289 365 108 
 99 390 391 
 200 11 215 
 37 21 274 
 392 213 212 
 46 393 268 
 378 379 32 
 95 32 379 
 307 51 96 
 236 328 237 
 181 220 352 
 394 361 395 
 22 366 18 
 46 268 396 
 397 267 398 
 167 135 350 
 134 350 135 
 24 190 311 
 39 303 298 
 398 399 72 
 134 400 350 
 401 261 259 
 225 228 40 
 234 256 235 
 285 402 73 
 372 73 402 
 403 312 278 
 327 278 312 
 70 368 215 
 404 391 390 
 221 256 141 
 53 51 251 
 389 343 390 
 374 313 405 
 159 174 231 
 84 375 261 
 405 313 406 
 340 377 334 
 139 141 256 
 230 407 295 
 408 184 149 
 147 149 184 
 407 380 295 
 221 235 256 
 52 199 162 
 205 108 192 
 409 410 351 
 200 411 168 
 173 168 411 
 57 59 25 
 151 25 59 
 239 412 61 
 116 287 117 
 211 117 287 
 181 352 97 
 233 235 413 
 394 413 235 
 154 66 414 
 80 271 156 
 127 387 128 
 152 67 66 
 415 97 352 
 264 332 88 
 340 281 416 
 113 115 273 
 218 384 383 
 46 48 393 
 29 326 27 
 300 294 375 
 417 402 418 
 95 93 419 
 378 136 135 
 46 150 270 
 420 148 344 
 265 421 266 
 95 379 94 
 397 265 267 
 47 270 248 
 415 352 195 
 272 375 294 
 205 207 290 
 374 290 207 
 403 278 370 
 175 370 278 
 36 333 281 
 16 18 276 
 118 117 213 
 39 297 226 
 204 350 400 
 422 114 347 
 113 347 114 
 62 61 412 
 31 20 423 
 19 21 334 
 14 248 270 
 275 150 396 
 219 361 424 
 57 281 333 
 167 94 425 
 95 419 35 
 280 416 281 
 50 393 48 
 70 277 245 
 346 245 277 
 353 203 240 
 275 396 356 
 19 423 20 
 254 214 163 
 49 96 48 
 182 308 426 
 181 427 219 
 185 365 369 
 157 156 271 
 246 69 271 
 329 331 357 
 92 428 93 
 408 59 103 
 291 387 347 
 92 292 428 
 167 425 135 
 371 129 128 
 221 219 424 
 189 341 324 
 360 219 427 
 327 288 278 
 409 3 410 
 76 97 429 
 122 124 177 
 119 231 295 
 53 251 250 
 52 112 269 
 415 195 381 
 430 93 428 
 113 428 292 
 353 240 255 
 392 199 213 
 118 213 199 
 358 357 331 
 417 418 309 
 409 298 303 
 169 171 370 
 403 370 171 
 140 426 308 
 286 249 287 
 329 81 431 
 80 431 81 
 135 425 379 
 372 138 73 
 243 367 366 
 24 282 25 
 321 102 81 
 404 177 176 
 147 184 257 
 118 250 206 
 208 223 222 
 430 273 132 
 57 25 282 
 208 251 223 
 289 290 405 
 374 405 290 
 31 423 32 
 45 432 238 
 236 238 432 
 243 245 367 
 304 17 348 
 268 356 396 
 66 248 414 
 262 129 263 
 151 148 34 
 161 266 433 
 421 433 266 
 420 34 148 
 76 429 434 
 79 102 247 
 401 320 261 
 340 165 136 
 42 176 146 
 188 190 435 
 319 435 190 
 409 303 3 
 253 214 56 
 254 56 214 
 118 199 250 
 53 250 199 
 236 432 436 
 437 436 432 
 325 222 27 
 253 164 214 
 363 215 368 
 122 438 343 
 378 32 423 
 236 436 65 
 422 347 387 
 50 269 393 
 268 393 269 
 169 123 323 
 205 192 206 
 394 424 361 
 360 427 78 
 310 160 164 
 133 44 439 
 36 334 21 
 85 126 434 
 125 434 126 
 345 440 166 
 14 414 248 
 157 271 69 
 202 441 91 
 264 91 441 
 371 263 129 
 392 162 199 
 181 78 427 
 159 231 121 
 84 65 436 
 289 405 442 
 172 442 405 
 119 121 231 
 45 439 44 
 241 431 156 
 80 156 431 
 343 438 390 
 403 313 312 
 363 364 411 
 173 411 364 
 345 266 443 
 161 443 266 
 84 436 444 
 119 380 217 
 345 166 399 
 374 207 314 
 252 348 445 
 89 419 191 
 42 391 176 
 221 424 235 
 394 235 424 
 113 273 428 
 407 382 384 
 197 145 446 
 285 418 402 
 62 412 351 
 409 351 412 
 106 108 365 
 239 298 412 
 407 384 380 
 95 35 32 
 408 149 59 
 151 59 149 
 119 295 380 
 134 341 400 
 134 165 324 
 420 344 64 
 415 429 97 
 211 287 249 
 280 282 311 
 239 439 238 
 363 411 215 
 200 215 411 
 260 247 102 
 4 410 3 
 430 419 93 
 236 65 328 
 89 91 33 
 264 33 91 
 159 121 163 
 84 444 375 
 175 146 176 
 109 64 344 
 46 396 150 
 85 429 296 
 325 314 222 
 182 426 255 
 16 348 17 
 183 255 240 
 421 338 433 
 45 105 432 
 252 445 356 
 437 105 388 
 218 380 384 
 321 357 359 
 394 395 413 
 239 61 439 
 305 359 317 
 63 373 64 
 420 64 373 
 346 367 245 
 182 447 308 
 253 55 309 
 417 309 55 
 41 240 203 
 109 328 65 
 403 171 406 
 172 406 171 
 289 369 365 
 45 238 439 
 437 432 105 
 420 26 34 
 275 356 448 
 327 385 288 
 133 439 61 
 280 165 416 
 43 388 105 
 378 377 136 
 315 279 302 
 420 373 26 
 319 26 373 
 371 318 364 
 254 155 56 
 172 405 406 
 134 324 341 
 24 311 282 
 264 441 332 
 310 440 443 
 289 442 369 
 161 433 174 
 338 174 433 
 120 302 279 
 409 412 298 
 89 35 419 
 197 247 145 
 340 136 377 
 42 44 449 
 133 449 44 
 371 128 376 
 291 376 128 
 371 376 318 
 196 308 447 
 280 324 165 
 345 443 440 
 378 423 377 
 304 349 322 
 300 30 294 
 340 416 165 
 194 339 103 
 99 98 390 
 389 390 98 
 237 328 297 
 401 68 435 
 404 176 391 
 43 146 288 
 19 377 423 
 16 445 348 
 110 446 145 
 310 443 160 
 85 434 429 
 58 38 386 
 76 434 100 
 125 100 434 
 161 160 443 
 430 428 273 
 398 267 399 
 345 399 267 
 300 444 301 
 437 301 444 
 260 322 349 
 86 381 386 
 194 386 381 
 437 388 301 
 29 301 388 
 1 3 303 
 286 293 450 
 372 450 293 
 157 56 155 
 437 444 436 
 325 27 326 
 241 330 431 
 329 431 330 
 404 390 438 
 408 103 339 
 29 388 385 
 188 435 68 
 353 255 426 
 182 184 447 
 82 294 30 
 8 87 274 
 37 274 87 
 408 447 184 
 401 435 320 
 346 276 18 
 86 386 38 
 392 446 162 
 110 162 446 
 285 166 440 
 133 71 449 
 99 449 71 
 29 385 326 
 85 87 126 
 8 126 87 
 99 391 449 
 327 326 385 
 75 451 227 
 258 227 451 
 300 375 444 
 137 209 187 
 185 187 209 
 152 400 341 
 94 379 425 
 430 191 419 
 211 198 212 
 197 212 198 
 275 448 276 
 16 276 448 
 430 132 191 
 260 145 247 
 204 153 201 
 310 418 440 
 285 440 418 
 415 296 429 
 72 399 166 
 319 320 435 
 286 450 342 
 417 342 450 
 173 364 318 
 353 426 354 
 403 406 313 
 408 339 447 
 310 309 418 
 401 451 68 
 75 68 451 
 140 354 426 
 417 450 402 
 372 402 450 
 90 191 132 
 401 259 451 
 258 451 259 
 356 445 448 
 417 55 342 
 54 342 55 
 392 212 446 
 197 446 212 
 86 296 381 
 415 381 296 
 144 318 376 
 183 228 257 
 225 257 228 
 8 274 7 
 23 7 274 
 196 447 339 
 42 449 391 
 204 400 153 
 152 153 400 
 14 9 414 
 154 414 9 
 404 438 177 
 154 201 153 
 16 448 445 
 122 177 438 
