TITLE      =  "2D FE Unstructured grid data" 
VARIABLES = "X", "Y", "U", "Dom" 
ZONE T="P1", F=FEPOINT, N= 326 E= 582  ET=TRIANGLE 
 0.804761 8.931736 9.736533 20
 0.883450 9.033758 9.917244 20
 0.731714 9.012262 9.744014 20
 2.215323 8.693197 10.908580 20
 2.352635 8.589117 10.941820 20
 2.338058 8.714190 11.052311 20
 0.813117 9.117463 9.930605 20
 2.255517 8.547160 10.802748 20
 2.511587 9.677944 12.189550 20
 2.365838 9.722083 12.087937 20
 2.355013 9.581230 11.936265 20
 2.389450 8.917956 11.307460 20
 2.507951 8.842249 11.350251 20
 2.535382 9.000408 11.535836 20
 0.600051 9.442334 10.042395 20
 0.625002 9.593052 10.218062 20
 0.495180 9.502041 9.997234 20
 2.232544 9.342650 11.575224 20
 2.231482 9.477139 11.708647 20
 2.118436 9.423791 11.542245 20
 2.107061 8.657786 10.764910 20
 2.156330 8.559928 10.716333 20
 0.441684 9.357429 9.799127 20
 0.279594 9.434204 9.713804 20
 0.296961 9.314909 9.611878 20
 0.376853 9.485054 9.861913 20
 0.858725 8.722531 9.581298 20
 1.021079 8.803075 9.824194 20
 0.926489 8.895859 9.822387 20
 0.722314 9.520363 10.242690 20
 2.456092 9.784729 12.240830 20
 1.666667 10.000000 11.666667 20
 1.527778 10.000000 11.527778 20
 1.576167 9.835144 11.411312 20
 1.805556 10.000000 11.805556 20
 1.737316 9.870559 11.607878 20
 1.903461 9.864985 11.768456 20
 1.508334 8.189949 9.698335 20
 1.644398 8.157336 9.801798 20
 1.585124 8.273692 9.858876 20
 1.707647 8.287313 9.995026 20
 1.970951 8.965046 10.936040 20
 1.824499 9.015575 10.840121 20
 1.870443 8.844454 10.714939 20
 1.761035 8.899155 10.660235 20
 2.339659 9.421269 11.760954 20
 1.388889 10.000000 11.388889 20
 1.286949 9.850028 11.136984 20
 1.458333 9.900642 11.358975 20
 0.000000 9.166667 9.166667 20
 0.123921 9.056075 9.180000 20
 0.118748 9.221499 9.340250 20
 0.833333 10.000000 10.833333 20
 0.771428 9.881005 10.652441 20
 0.952749 9.878537 10.831287 20
 0.511959 9.611855 10.123819 20
 0.803698 9.649410 10.453125 20
 0.678018 9.708518 10.386544 20
 1.616130 9.365771 10.981936 20
 1.769831 9.294094 11.063953 20
 1.730980 9.435247 11.166254 20
 0.261602 9.600441 9.862051 20
 1.590732 7.730081 9.320868 20
 1.716652 7.782197 9.498910 20
 1.610746 7.862753 9.473557 20
 1.189201 8.795759 9.985002 20
 1.113182 8.680849 9.794075 20
 1.696259 8.602985 10.299295 20
 1.803862 8.695800 10.499723 20
 1.657487 8.728475 10.386012 20
 2.638889 10.000000 12.638889 20
 2.500000 10.000000 12.500000 20
 2.564223 9.843437 12.407668 20
 1.494142 8.765318 10.259503 20
 1.645896 8.843415 10.489358 20
 1.564363 8.918695 10.483101 20
 1.904055 7.879086 9.783207 20
 1.837587 7.992599 9.830250 20
 1.796929 7.883687 9.680675 20
 2.449164 9.443862 11.893043 20
 1.961229 7.996693 9.957986 20
 0.191461 9.510171 9.701636 20
 1.103121 8.910573 10.013734 20
 1.767289 8.201658 9.969007 20
 1.592797 9.097786 10.690613 20
 1.669018 9.221201 10.890246 20
 1.548165 9.241406 10.789600 20
 0.411077 9.591169 10.002255 20
 1.250000 10.000000 11.250000 20
 0.990099 8.657994 9.648143 20
 1.687510 7.652841 9.340408 20
 0.142591 9.655199 9.797794 20
 0.283525 9.728330 10.011865 20
 1.464331 9.149743 10.614107 20
 1.402143 8.440618 9.842816 20
 1.309117 8.378160 9.687328 20
 1.451239 8.326179 9.777465 20
 0.196901 9.803100 10.000002 20
 1.965205 8.701877 10.667136 20
 1.431722 9.788975 11.220704 20
 1.492050 9.689928 11.181991 20
 1.728744 8.439555 10.168356 20
 1.596820 8.391994 9.988872 20
 1.561748 8.649764 10.211569 20
 1.608491 9.667698 11.276200 20
 0.293526 8.784400 9.077945 20
 0.441780 8.860373 9.302182 20
 0.333250 8.930343 9.263603 20
 1.181810 8.551363 9.733218 20
 1.220491 8.689522 9.910057 20
 2.307197 8.331261 10.638524 20
 2.207673 8.252357 10.460100 20
 2.310130 8.199123 10.509323 20
 1.596348 8.519858 10.116264 20
 2.507870 9.539163 12.047061 20
 1.544884 8.074590 9.619533 20
 2.218618 9.697988 11.916621 20
 2.203887 9.583989 11.787898 20
 1.334896 9.444846 10.779760 20
 1.348866 9.335640 10.684532 20
 1.469599 9.466022 10.935645 20
 2.222222 10.000000 12.222222 20
 2.083333 10.000000 12.083333 20
 2.155257 9.869110 12.024370 20
 1.497565 9.348309 10.845900 20
 1.071089 8.570249 9.641382 20
 2.388564 9.077755 11.466361 20
 1.684391 8.982583 10.667019 20
 1.361718 8.903855 10.265617 20
 1.337824 8.769677 10.107549 20
 1.458961 8.869428 10.328432 20
 2.023131 9.905187 11.928326 20
 0.356034 9.675016 10.031050 20
 1.802797 9.755301 11.558111 20
 0.211318 9.131266 9.342590 20
 0.294735 9.054495 9.349241 20
 0.369858 9.189230 9.559102 20
 2.535372 8.717549 11.253013 20
 2.416075 8.773869 11.190008 20
 2.439552 8.650907 11.090532 20
 2.466010 8.508545 10.974617 20
 2.344554 8.463660 10.808286 20
 2.438167 8.359035 10.797276 20
 2.138381 9.518966 11.657368 20
 0.529079 9.213453 9.742556 20
 0.864530 9.786017 10.650558 20
 2.079071 7.912491 9.991632 20
 2.120774 7.803924 9.924775 20
 2.198971 7.963866 10.162909 20
 2.006415 7.842937 9.849414 20
 0.694444 10.000000 10.694444 20
 0.555556 10.000000 10.555556 20
 0.632514 9.850994 10.483521 20
 0.000000 9.444445 9.444445 20
 0.000000 9.305555 9.305555 20
 0.147830 9.363488 9.511317 20
 0.714316 9.402905 10.117245 20
 2.177634 8.374730 10.552434 20
 0.229289 9.240767 9.470056 20
 1.247027 9.296149 10.543205 20
 1.236969 9.439577 10.676572 20
 1.445282 9.003757 10.449073 20
 2.523983 9.183787 11.707808 20
 0.191008 8.946526 9.137543 20
 1.838712 9.384990 11.223731 20
 1.918479 9.271042 11.189547 20
 1.973748 9.426676 11.400448 20
 2.070018 9.313602 11.383653 20
 0.712002 9.129732 9.841754 20
 1.894796 8.283788 10.178648 20
 1.796368 8.333261 10.129691 20
 0.817945 9.228610 10.046583 20
 0.705682 9.281222 9.986935 20
 1.687356 9.755663 11.443032 20
 2.126284 8.081773 10.208131 20
 2.057845 8.012397 10.070312 20
 0.487094 9.909638 10.396726 20
 0.086995 9.513889 9.600880 20
 1.818970 9.167747 10.986756 20
 1.952648 9.115278 11.067963 20
 1.212820 9.693766 10.906603 20
 1.355126 9.675912 11.031054 20
 0.830477 9.369934 10.200432 20
 0.838538 9.499920 10.338473 20
 0.493726 8.971506 9.465253 20
 0.404042 9.048648 9.452703 20
 0.000000 9.722222 9.722222 20
 0.000000 9.583333 9.583333 20
 0.416667 10.000000 10.416667 20
 0.277778 10.000000 10.277778 20
 0.347068 9.865978 10.213048 20
 0.804992 8.836111 9.641135 20
 1.398905 8.200853 9.599813 20
 1.751417 7.973350 9.724829 20
 2.213852 8.122400 10.336329 20
 1.154797 9.368364 10.523191 20
 1.944444 10.000000 11.944444 20
 2.084858 8.479953 10.564874 20
 2.011927 8.365358 10.377354 20
 1.860916 8.142054 10.003030 20
 2.010645 8.122132 10.132846 20
 2.029161 9.791840 11.821014 20
 1.497397 8.567036 10.064484 20
 0.598355 8.906145 9.504530 20
 1.030836 9.115532 10.146395 20
 1.126290 9.230981 10.357306 20
 1.010762 9.226134 10.236928 20
 0.972222 10.000000 10.972222 20
 0.000000 9.027778 9.027778 20
 2.055979 8.579137 10.635179 20
 2.019666 8.846539 10.866249 20
 0.492241 9.801861 10.294110 20
 2.074688 8.746455 10.821199 20
 2.018899 9.223706 11.242638 20
 1.004662 8.995338 10.000034 20
 1.878052 8.432953 10.311062 20
 1.824728 8.560706 10.385489 20
 1.747745 8.802259 10.550051 20
 1.155032 9.125547 10.280614 20
 1.623189 9.519094 11.142296 20
 0.964521 9.713545 10.678075 20
 0.954280 9.592237 10.546533 20
 1.942917 9.574646 11.517584 20
 2.075941 9.644622 11.720573 20
 1.928411 9.705174 11.633596 20
 1.263118 8.884799 10.147956 20
 2.197724 9.016069 11.213845 20
 2.107676 8.934102 11.041830 20
 2.247982 8.912095 11.160136 20
 2.158822 8.828609 10.987482 20
 1.058497 9.815688 10.874201 20
 2.106870 8.283138 10.390073 20
 2.412495 9.230323 11.642864 20
 2.304126 9.214216 11.518378 20
 0.930620 9.294585 10.225229 20
 0.973801 9.436555 10.410378 20
 1.054995 9.315080 10.370103 20
 1.205404 8.976017 10.181461 20
 0.633174 9.197259 9.830453 20
 0.592068 9.076138 9.668236 20
 1.976478 7.746914 9.723468 20
 2.228667 8.455847 10.684577 20
 0.564581 9.714310 10.278899 20
 0.213930 8.846450 9.060388 20
 2.037016 9.517852 11.554889 20
 1.713748 9.647942 11.361705 20
 1.746946 9.550308 11.297274 20
 0.000000 10.000000 10.000000 20
 0.000000 9.861111 9.861111 20
 0.107824 9.892176 9.999998 20
 0.138889 10.000000 10.138889 20
 1.151346 9.895024 11.046376 20
 0.000000 8.750000 8.750000 20
 0.149972 8.713051 8.863026 20
 0.106092 8.849491 8.955592 20
 2.171618 9.210989 11.382648 20
 2.361111 10.000000 12.361111 20
 2.288904 9.895423 12.184334 20
 2.436661 9.892396 12.329058 20
 1.358403 9.543875 10.902293 20
 1.443864 9.592309 11.036188 20
 0.911069 9.174496 10.085600 20
 1.887306 8.627846 10.515209 20
 2.162253 9.112062 11.274362 20
 2.058272 9.036160 11.094481 20
 1.062614 9.535784 10.598421 20
 1.717935 9.096978 10.814945 20
 2.015341 8.240054 10.255466 20
 1.311718 8.993432 10.305189 20
 2.263370 9.107443 11.370857 20
 1.831896 9.622097 11.454004 20
 1.853158 9.498068 11.351249 20
 0.759233 9.770711 10.529958 20
 1.943088 8.197810 10.140963 20
 2.301919 9.006825 11.308795 20
 1.499858 7.947772 9.447683 20
 1.500886 7.797293 9.298238 20
 1.258936 9.570167 10.829123 20
 2.288204 8.801998 11.090264 20
 1.955428 8.552999 10.508485 20
 0.480838 9.114609 9.595465 20
 0.389819 9.757821 10.147646 20
 1.153550 9.786070 10.939631 20
 1.346873 9.100210 10.447118 20
 2.366446 9.811171 12.177625 20
 0.091278 9.780123 9.871411 20
 0.213692 9.912251 10.125949 20
 1.301408 8.605935 9.907391 20
 1.426698 8.649664 10.076412 20
 0.599666 9.312307 9.911988 20
 1.076383 9.418751 10.495155 20
 2.126009 9.752971 11.878987 20
 1.974128 8.457271 10.431467 20
 1.079324 9.680214 10.759556 20
 0.000000 8.888889 8.888889 20
 1.111111 10.000000 11.111111 20
 1.642432 7.990613 9.633101 20
 2.064703 9.130988 11.195734 20
 1.534460 9.581480 11.115955 20
 1.345869 9.212654 10.558549 20
 1.750976 8.080727 9.831761 20
 1.444916 9.260551 10.705494 20
 0.688054 8.781419 9.469505 20
 0.719683 8.890155 9.609871 20
 2.347884 9.312045 11.659965 20
 1.142776 9.493199 10.635997 20
 2.460074 9.329252 11.789362 20
 1.149933 9.600081 10.750027 20
 1.429399 8.087277 9.516726 20
 1.404965 8.536551 9.941565 20
 1.305023 8.488237 9.793309 20
 1.575904 7.604143 9.180097 20
 2.269420 9.791131 12.060560 20
 1.703635 7.898520 9.602213 20
 1.842852 7.773014 9.615924 20
 1.878363 7.667325 9.545756 20
 1.117910 9.027727 10.145677 20
 0.455960 9.693076 10.149037 20
 1.782536 7.690072 9.472674 20
 1.497119 8.467815 9.964982 20
 1.229989 9.066641 10.296668 20
 2.552602 8.594373 11.147036 20
 0.084204 8.953752 9.037954 20
 1.047968 9.918360 10.966324 20
 1.242998 9.176913 10.419950 20
 2.113444 8.183642 10.297156 20
 1 2 3 
 4 5 6 
 2 7 3 
 8 5 4 
 9 10 11 
 12 13 14 
 15 16 17 
 18 19 20 
 21 22 4 
 23 24 25 
 26 24 23 
 27 28 29 
 15 30 16 
 9 31 10 
 32 33 34 
 35 36 37 
 38 39 40 
 41 40 39 
 42 43 44 
 45 44 43 
 46 19 18 
 47 48 49 
 50 51 52 
 53 54 55 
 56 17 16 
 22 8 4 
 30 57 16 
 16 57 58 
 59 60 61 
 26 62 24 
 63 64 65 
 66 28 67 
 68 69 70 
 71 72 73 
 74 75 76 
 77 78 79 
 74 70 75 
 46 80 11 
 77 81 78 
 82 24 62 
 66 83 28 
 41 39 84 
 85 86 87 
 26 88 62 
 47 89 48 
 59 86 60 
 27 90 28 
 63 91 64 
 92 62 93 
 85 87 94 
 95 96 97 
 98 92 93 
 99 44 69 
 100 101 34 
 41 102 103 
 68 70 104 
 105 34 101 
 106 107 108 
 67 109 110 
 111 112 113 
 68 104 114 
 9 11 115 
 38 116 39 
 117 118 11 
 119 120 121 
 122 123 124 
 121 120 125 
 117 11 10 
 126 109 67 
 12 14 127 
 85 76 128 
 129 130 131 
 123 132 124 
 133 62 88 
 134 37 36 
 135 136 137 
 138 139 140 
 141 142 143 
 144 20 19 
 145 23 137 
 25 137 23 
 100 49 48 
 41 103 40 
 135 52 51 
 146 55 54 
 100 34 49 
 147 148 149 
 77 150 81 
 147 81 150 
 151 152 153 
 154 155 156 
 33 49 34 
 15 157 30 
 32 34 36 
 74 131 130 
 111 158 112 
 11 80 115 
 135 137 159 
 160 120 161 
 74 76 131 
 85 162 76 
 76 75 128 
 163 127 14 
 164 136 51 
 165 166 167 
 168 167 166 
 169 3 7 
 170 171 84 
 46 11 19 
 169 172 173 
 105 174 34 
 175 176 149 
 152 177 153 
 154 156 178 
 179 180 166 
 181 182 48 
 100 48 182 
 147 149 176 
 45 128 75 
 183 184 157 
 30 157 184 
 185 186 108 
 107 185 108 
 138 13 139 
 187 188 92 
 189 190 191 
 74 104 70 
 11 118 19 
 27 29 192 
 38 97 193 
 194 79 78 
 175 149 195 
 160 161 196 
 197 35 37 
 198 199 158 
 200 81 201 
 202 124 132 
 203 114 104 
 135 51 136 
 204 185 107 
 205 206 207 
 126 67 90 
 208 53 55 
 50 209 51 
 99 210 21 
 99 211 44 
 82 178 156 
 212 153 177 
 99 21 213 
 166 180 214 
 215 29 83 
 28 83 29 
 41 84 171 
 216 217 102 
 68 102 217 
 69 44 218 
 200 170 84 
 219 206 205 
 59 220 121 
 146 57 221 
 222 221 57 
 216 170 199 
 223 224 225 
 202 225 224 
 147 176 81 
 129 226 130 
 227 228 229 
 230 229 228 
 66 226 83 
 186 137 136 
 9 73 31 
 231 55 221 
 119 161 120 
 134 225 37 
 202 37 225 
 158 199 232 
 163 233 127 
 234 127 233 
 183 235 236 
 237 236 235 
 183 236 184 
 222 184 236 
 238 83 226 
 169 239 240 
 169 240 3 
 165 61 60 
 169 173 239 
 241 148 150 
 151 153 54 
 155 52 156 
 183 173 172 
 198 242 22 
 212 243 153 
 58 153 243 
 145 240 239 
 204 3 240 
 188 178 92 
 189 191 177 
 198 158 242 
 106 108 244 
 68 217 69 
 167 20 245 
 146 221 55 
 183 157 173 
 82 92 178 
 212 177 191 
 200 78 81 
 105 220 246 
 247 246 220 
 248 249 250 
 248 250 251 
 82 156 24 
 25 24 156 
 168 20 167 
 25 159 137 
 89 252 48 
 253 254 255 
 165 60 166 
 179 166 60 
 168 256 18 
 257 258 259 
 119 121 260 
 261 260 121 
 42 180 43 
 179 43 180 
 169 7 172 
 215 205 2 
 262 2 205 
 99 69 263 
 45 218 44 
 227 264 265 
 227 265 228 
 222 57 184 
 30 184 57 
 72 259 73 
 222 236 266 
 179 267 43 
 268 199 170 
 129 162 269 
 26 23 17 
 42 44 211 
 234 270 127 
 111 143 142 
 223 271 272 
 66 130 226 
 58 273 153 
 25 156 159 
 200 201 274 
 12 127 275 
 6 140 139 
 35 32 36 
 276 277 65 
 181 278 182 
 12 229 279 
 99 280 210 
 145 281 240 
 204 240 185 
 212 191 282 
 164 108 136 
 85 267 86 
 122 124 258 
 12 279 139 
 234 18 256 
 179 60 86 
 181 48 283 
 106 244 254 
 59 87 86 
 284 269 162 
 285 259 258 
 98 286 92 
 190 287 191 
 98 191 287 
 187 92 286 
 45 43 128 
 215 2 29 
 1 29 2 
 53 151 54 
 155 50 52 
 288 110 109 
 70 69 218 
 74 289 104 
 145 290 23 
 15 23 290 
 15 290 157 
 173 157 290 
 236 291 266 
 15 17 23 
 179 86 267 
 133 93 62 
 168 214 256 
 129 131 162 
 237 291 236 
 284 162 94 
 285 10 31 
 202 292 124 
 144 224 245 
 216 199 293 
 247 272 271 
 231 221 294 
 295 253 255 
 89 296 252 
 74 130 289 
 98 93 191 
 82 62 92 
 261 101 182 
 100 182 101 
 103 102 114 
 68 114 102 
 216 280 217 
 276 65 297 
 223 245 224 
 85 94 162 
 99 213 211 
 223 272 167 
 165 167 272 
 234 256 270 
 298 256 214 
 203 104 289 
 144 118 224 
 134 174 246 
 261 121 299 
 58 57 273 
 134 246 271 
 146 273 57 
 278 260 182 
 21 4 213 
 230 213 4 
 284 94 300 
 43 267 128 
 194 301 297 
 39 297 301 
 247 61 272 
 302 94 87 
 165 272 61 
 76 162 131 
 27 192 303 
 186 281 137 
 145 137 281 
 237 207 206 
 204 303 304 
 302 125 120 
 28 90 67 
 117 224 118 
 42 211 228 
 230 228 211 
 144 245 20 
 298 214 180 
 46 18 305 
 234 305 18 
 302 300 94 
 247 220 61 
 59 121 125 
 288 289 130 
 59 61 220 
 256 264 270 
 306 266 291 
 46 307 80 
 46 305 307 
 222 294 221 
 153 273 54 
 156 52 159 
 163 307 233 
 181 283 294 
 231 294 283 
 117 292 224 
 202 224 292 
 34 174 36 
 134 36 174 
 56 16 243 
 181 294 308 
 181 308 278 
 38 309 116 
 121 220 299 
 223 225 271 
 257 122 258 
 72 257 259 
 200 274 170 
 268 170 274 
 66 110 130 
 288 130 110 
 288 310 289 
 48 252 283 
 254 244 255 
 288 311 310 
 63 312 91 
 230 279 229 
 216 171 170 
 168 166 214 
 164 244 108 
 223 167 245 
 261 182 260 
 186 185 281 
 240 281 185 
 168 18 20 
 124 292 313 
 306 161 278 
 119 278 161 
 216 293 280 
 117 313 292 
 198 280 293 
 183 172 235 
 63 65 277 
 276 297 116 
 198 210 280 
 33 47 49 
 99 263 280 
 64 314 65 
 41 171 102 
 119 260 278 
 222 266 294 
 216 102 171 
 306 278 308 
 39 116 297 
 66 67 110 
 268 232 199 
 262 235 172 
 105 299 220 
 77 315 241 
 316 241 315 
 42 265 180 
 298 180 265 
 123 197 132 
 190 251 287 
 249 187 286 
 85 128 267 
 197 37 132 
 58 243 16 
 160 196 206 
 237 206 196 
 8 22 242 
 230 4 279 
 202 132 37 
 1 192 29 
 276 116 309 
 103 97 40 
 215 317 205 
 219 205 317 
 38 193 309 
 152 189 177 
 188 154 178 
 56 243 318 
 64 91 319 
 103 320 97 
 95 97 320 
 238 321 317 
 219 317 321 
 227 229 275 
 12 275 229 
 138 140 322 
 141 322 140 
 186 136 108 
 38 40 97 
 112 158 232 
 134 271 225 
 209 295 323 
 296 208 324 
 198 293 199 
 111 242 158 
 69 217 263 
 284 300 325 
 262 172 7 
 135 159 52 
 146 54 273 
 284 325 321 
 160 300 120 
 302 120 300 
 230 211 213 
 147 150 148 
 39 301 84 
 12 139 13 
 26 17 88 
 56 88 17 
 175 326 201 
 268 201 326 
 295 255 323 
 164 323 255 
 296 324 252 
 231 252 324 
 215 83 317 
 238 317 83 
 6 5 140 
 298 265 264 
 42 228 265 
 204 304 3 
 1 3 304 
 288 109 311 
 73 259 31 
 285 31 259 
 298 264 256 
 249 286 250 
 251 250 287 
 133 318 282 
 262 207 235 
 237 235 207 
 141 140 5 
 280 263 217 
 124 313 258 
 203 289 310 
 237 196 291 
 194 297 314 
 65 314 297 
 105 101 299 
 261 299 101 
 262 7 2 
 95 310 311 
 203 320 114 
 285 258 313 
 212 318 243 
 306 196 161 
 127 270 275 
 227 275 270 
 144 19 118 
 208 55 324 
 209 323 51 
 133 282 93 
 262 205 207 
 105 246 174 
 59 125 87 
 77 241 150 
 133 88 318 
 56 318 88 
 103 114 320 
 303 192 304 
 141 5 142 
 231 283 252 
 164 255 244 
 227 270 264 
 247 271 246 
 306 291 196 
 145 239 290 
 173 290 239 
 268 274 201 
 95 311 96 
 164 51 323 
 231 324 55 
 98 250 286 
 98 287 250 
 81 176 201 
 175 201 176 
 302 87 125 
 200 301 78 
 307 305 233 
 112 195 113 
 238 226 269 
 45 75 218 
 70 218 75 
 285 313 10 
 129 269 226 
 117 10 313 
 8 142 5 
 160 206 325 
 219 325 206 
 6 279 4 
 200 84 301 
 160 325 300 
 212 282 318 
 77 79 315 
 64 315 79 
 234 233 305 
 111 142 242 
 8 242 142 
 294 266 308 
 203 310 320 
 6 139 279 
 194 78 301 
 1 304 192 
 306 308 266 
 95 320 310 
 219 321 325 
 238 269 321 
 64 79 314 
 64 319 315 
 268 326 232 
 112 232 326 
 191 93 282 
 284 321 269 
 316 315 319 
 198 22 210 
 112 326 195 
 175 195 326 
 194 314 79 
 21 210 22 
