TITLE      =  "2D FE Unstructured grid data" 
VARIABLES = "X", "Y", "U", "Dom" 
ZONE T="P1", F=FEPOINT, N= 589 E= 1077  ET=TRIANGLE 
 6.805418 1.728012 8.533404 8
 6.879232 1.891371 8.770583 8
 6.701519 1.785672 8.487168 8
 6.567963 2.290683 8.858618 8
 6.680757 2.396833 9.077566 8
 6.582386 2.496284 9.078647 8
 7.164596 2.778845 9.943422 8
 7.262382 2.722581 9.984948 8
 7.201928 2.902174 10.104091 8
 7.342909 2.799273 10.142173 8
 8.250751 1.812134 10.062880 8
 8.284565 1.715435 9.999988 8
 8.411804 1.768777 10.180575 8
 7.959190 1.754323 9.713495 8
 7.802344 1.756332 9.558659 8
 7.856203 1.616465 9.472652 8
 6.849532 3.776139 10.625648 8
 6.800718 3.652420 10.453121 8
 6.911029 3.660890 10.571898 8
 7.498225 2.583424 10.081634 8
 7.622765 2.702036 10.324789 8
 7.500171 2.698773 10.198932 8
 7.443472 1.942950 9.386402 8
 7.613626 1.986608 9.600219 8
 7.510754 2.063014 9.573747 8
 7.552849 0.916855 8.469685 8
 7.494326 1.025363 8.519662 8
 7.374181 0.926226 8.300388 8
 6.810746 4.185935 10.996653 8
 6.771570 4.326343 11.097894 8
 6.666837 4.183290 10.850109 8
 6.692447 1.608083 8.300500 8
 7.068633 3.034311 10.102921 8
 7.052530 2.925088 9.977603 8
 8.273797 1.127248 9.401038 8
 8.220457 1.287513 9.507959 8
 8.120080 1.172185 9.292259 8
 7.438138 0.557798 7.995925 8
 7.316076 0.631051 7.947116 8
 7.295281 0.481153 7.776425 8
 7.523554 1.866925 9.390461 8
 7.731541 1.104297 8.835823 8
 7.749978 1.235802 8.985753 8
 7.601613 1.214993 8.816576 8
 8.478637 0.790780 9.269417 8
 8.313864 0.866223 9.180082 8
 8.331158 0.720848 9.051995 8
 7.219480 2.344383 9.563848 8
 7.363740 2.410020 9.773744 8
 7.257778 2.463959 9.721722 8
 7.340687 3.445907 10.786579 8
 7.209900 3.518409 10.728294 8
 7.257548 3.368222 10.625760 8
 8.474099 1.616217 10.090310 8
 8.340574 1.625544 9.966109 8
 7.312423 2.260671 9.573080 8
 6.953347 1.488441 8.441767 8
 6.831847 1.586057 8.417879 8
 6.827979 1.453654 8.281612 8
 7.486001 0.809553 8.295546 8
 6.963366 1.048810 8.012155 8
 6.884698 0.923605 7.808285 8
 7.042629 0.903632 7.946244 8
 7.691458 1.625557 9.316988 8
 7.587032 1.102500 8.689512 8
 6.956197 1.599887 8.556062 8
 6.913921 1.734840 8.648736 8
 7.173300 3.083775 10.257060 8
 8.333333 0.000000 8.333333 8
 8.472222 0.000000 8.472222 8
 8.423933 0.166367 8.590299 8
 6.690095 3.368343 10.058416 8
 6.610770 3.517084 10.127835 8
 6.571198 3.370148 9.941327 8
 6.375421 0.217663 6.593077 8
 6.491006 0.285487 6.776484 8
 6.309723 0.352951 6.662665 8
 7.986232 1.946766 9.932988 8
 8.040218 1.849507 9.889716 8
 8.114106 1.990244 10.104336 8
 6.771995 3.451471 10.223440 8
 8.175214 0.985853 9.161055 8
 8.030745 1.035779 9.066511 8
 6.456118 0.426628 6.882737 8
 8.194445 0.000000 8.194445 8
 8.260237 0.127251 8.387488 8
 8.090914 0.133506 8.224421 8
 6.668028 0.549795 7.217808 8
 6.552711 0.526996 7.079697 8
 6.668671 0.402044 7.070705 8
 7.620184 2.556905 10.177073 8
 8.801836 1.218172 10.020004 8
 8.738236 1.350614 10.088847 8
 8.659156 1.181875 9.841027 8
 7.474355 3.948735 11.423075 8
 7.362502 3.998096 11.360577 8
 7.354558 3.843473 11.198017 8
 7.787800 3.842246 11.630038 8
 7.717743 3.712051 11.429783 8
 7.853895 3.704172 11.558058 8
 7.147572 3.390509 10.538074 8
 7.258852 3.938286 11.197119 8
 7.491823 1.669027 9.160824 8
 7.420715 1.784334 9.205021 8
 7.342836 1.639057 8.981868 8
 6.805555 0.000000 6.805555 8
 6.780949 0.168758 6.949701 8
 6.669086 0.122512 6.791598 8
 7.441488 1.573872 9.015337 8
 7.734658 2.641909 10.376557 8
 7.085173 2.293885 9.379042 8
 7.198239 2.211733 9.409953 8
 7.098757 2.157671 9.256405 8
 7.507003 3.833107 11.340102 8
 8.611111 0.000000 8.611111 8
 8.713051 0.149972 8.863021 8
 8.541667 0.099357 8.641020 8
 6.919063 1.345560 8.264600 8
 7.084176 1.397750 8.481907 8
 7.033436 1.283168 8.316585 8
 6.506629 3.889209 10.395819 8
 6.371160 3.918404 10.289546 8
 6.453152 3.767231 10.220363 8
 7.248505 4.062547 11.311030 8
 7.753994 1.900319 9.654293 8
 7.777062 2.059184 9.836230 8
 6.967904 3.287072 10.254957 8
 7.032102 3.373044 10.405137 8
 6.923911 3.405792 10.329679 8
 7.020362 3.486349 10.506693 8
 7.471699 0.439762 7.911457 8
 7.393651 0.354021 7.747664 8
 8.387761 0.339635 8.727397 8
 8.240078 0.418746 8.658824 8
 8.276791 0.268489 8.545280 8
 8.461967 0.900401 9.362360 8
 7.432907 3.754267 11.187162 8
 7.330197 1.864834 9.195005 8
 7.660341 0.578731 8.239059 8
 7.567696 0.509109 8.076796 8
 7.710315 0.439928 8.150230 8
 7.136683 0.529082 7.665757 8
 7.205846 0.625018 7.830851 8
 8.669917 0.579927 9.249847 8
 8.757948 0.693155 9.451109 8
 8.605878 0.699880 9.305760 8
 6.505392 2.912363 9.417727 8
 6.458221 2.769819 9.228009 8
 6.590697 2.811427 9.402100 8
 6.733642 3.740400 10.474020 8
 8.419788 1.204282 9.624064 8
 8.332795 1.276246 9.609032 8
 8.569086 0.210360 8.779442 8
 8.508806 0.309166 8.817970 8
 6.747306 3.560399 10.307684 8
 6.880623 3.544763 10.425372 8
 8.146174 1.859522 10.005686 8
 7.639262 1.456599 9.095840 8
 7.763267 1.366998 9.130241 8
 7.753578 1.515011 9.268568 8
 7.003982 0.388354 7.392331 8
 7.133464 0.392585 7.526045 8
 7.012825 0.504763 7.517581 8
 7.919614 2.303614 10.223216 8
 7.874130 2.467033 10.341154 8
 7.794896 2.314073 10.108960 8
 7.725644 2.414804 10.140428 8
 6.712580 3.932482 10.645044 8
 6.708884 4.073019 10.781878 8
 6.595653 3.964163 10.559795 8
 7.949999 0.693922 8.643914 8
 8.057818 0.785259 8.843064 8
 7.934078 0.862031 8.796096 8
 6.453895 2.610102 9.063964 8
 6.561868 2.666827 9.228665 8
 6.999556 4.038641 11.038179 8
 7.132358 4.123266 11.255596 8
 7.014201 4.188108 11.202288 8
 6.555438 0.366973 6.922404 8
 7.588399 0.399238 7.987630 8
 6.315060 3.798978 10.114024 8
 7.007150 3.739095 10.746225 8
 8.101618 0.647294 8.748907 8
 8.432035 1.083317 9.515347 8
 6.929450 0.775722 7.705160 8
 6.801984 0.823573 7.625541 8
 6.788272 0.705521 7.493780 8
 8.024765 1.279948 9.304697 8
 7.894146 1.289960 9.184087 8
 7.976189 1.160414 9.136586 8
 7.550530 3.698022 11.248547 8
 7.434972 3.621327 11.056293 8
 8.103052 1.556893 9.659928 8
 8.175099 1.426256 9.601347 8
 8.266163 1.530432 9.796586 8
 7.171700 0.247466 7.419165 8
 7.302215 0.190436 7.492646 8
 7.275958 0.316941 7.592893 8
 7.809556 0.964260 8.773801 8
 7.810327 0.850372 8.660681 8
 7.107476 3.549114 10.656567 8
 8.014078 0.559529 8.573603 8
 7.310883 3.038144 10.349019 8
 7.393803 2.920684 10.314478 8
 7.442627 3.070481 10.513094 8
 7.204134 0.124253 7.328388 8
 8.134847 3.534906 11.669739 8
 8.141157 3.688168 11.829316 8
 7.999675 3.667001 11.666668 8
 8.750000 0.000000 8.750000 8
 8.578965 1.700395 10.279355 8
 6.840518 4.024195 10.864696 8
 6.958953 3.898711 10.857643 8
 8.119693 3.335945 11.455619 8
 8.203995 3.214273 11.418260 8
 8.225669 3.402265 11.627913 8
 8.104742 3.126991 11.231719 8
 8.182261 3.044488 11.226735 8
 7.660153 1.319150 8.979280 8
 6.584668 4.109902 10.694554 8
 8.018033 1.414853 9.432867 8
 7.209929 1.679876 8.889788 8
 7.221816 1.512943 8.734739 8
 7.110541 1.619870 8.730391 8
 7.638889 0.000000 7.638889 8
 7.777778 0.000000 7.777778 8
 7.724136 0.155138 7.879272 8
 7.670127 1.770020 9.440131 8
 7.569445 0.094249 7.663691 8
 7.518536 2.990162 10.508694 8
 8.138584 2.715771 10.854339 8
 8.073783 2.616538 10.690308 8
 8.237949 2.582546 10.820487 8
 7.486845 3.218712 10.705552 8
 7.466652 3.355587 10.822230 8
 7.330201 3.277953 10.608142 8
 6.676661 1.313509 7.990150 8
 6.777507 1.361396 8.138885 8
 6.676695 1.483973 8.160644 8
 8.469637 0.651486 9.121123 8
 6.621573 3.804765 10.426328 8
 6.669802 3.646270 10.316051 8
 8.516606 0.998214 9.514817 8
 8.661506 1.034647 9.696150 8
 8.562360 1.096392 9.658754 8
 8.581209 0.914497 9.495706 8
 7.949980 0.968231 8.918200 8
 8.584172 1.311510 9.895678 8
 8.248993 0.587877 8.836864 8
 8.138595 0.527782 8.666366 8
 8.168266 0.324664 8.492924 8
 8.117494 1.321646 9.439129 8
 6.560232 3.675211 10.235421 8
 8.206525 0.729662 8.936179 8
 8.809734 0.800232 9.609969 8
 8.646532 0.810924 9.457460 8
 7.846552 0.756488 8.603026 8
 7.919750 3.793797 11.713539 8
 6.666667 0.000000 6.666667 8
 7.646689 3.834103 11.480779 8
 7.589310 3.951665 11.540957 8
 7.850990 1.168013 9.018984 8
 7.044038 0.280671 7.324700 8
 8.280723 3.514709 11.795415 8
 7.592319 3.433949 11.026257 8
 7.679657 3.570265 11.249915 8
 7.536464 3.555036 11.091496 8
 7.052512 3.196591 10.249075 8
 8.215405 1.627476 9.842870 8
 6.727134 2.194557 8.921667 8
 6.669048 2.050785 8.719805 8
 6.807657 2.096110 8.903744 8
 7.336075 1.231452 8.567506 8
 7.169745 1.239987 8.409708 8
 7.261079 1.146039 8.407093 8
 7.457663 0.674062 8.131709 8
 7.707490 2.529548 10.237025 8
 6.463891 3.083112 9.546970 8
 6.551127 3.130996 9.682096 8
 6.429959 3.207061 9.636988 8
 8.044079 3.806587 11.850659 8
 8.126678 2.518943 10.645614 8
 7.462380 1.464749 8.927106 8
 7.388029 1.351707 8.739710 8
 7.538618 1.349015 8.887602 8
 7.462672 1.262592 8.725245 8
 7.068888 2.818274 9.887142 8
 8.761953 0.916679 9.678637 8
 7.983636 2.709339 10.692957 8
 8.034971 2.803290 10.838244 8
 6.759270 1.021705 7.780955 8
 6.719118 1.165979 7.885079 8
 6.623026 1.060949 7.683957 8
 8.182172 0.226299 8.408472 8
 7.102610 1.031868 8.134461 8
 8.040907 2.404523 10.445416 8
 7.856003 1.453294 9.309272 8
 8.261129 3.719571 11.980689 8
 8.343011 3.622439 11.965434 8
 8.418548 3.747811 12.166340 8
 7.315815 3.590630 10.906438 8
 6.822093 3.892826 10.714899 8
 7.234975 4.226376 11.461328 8
 6.669121 0.801367 7.470472 8
 6.635121 0.669872 7.304981 8
 7.372607 1.087612 8.460200 8
 7.897685 1.866148 9.763812 8
 7.845436 3.518463 11.363894 8
 7.950570 3.409978 11.360535 8
 7.993028 3.524222 11.517241 8
 6.800164 1.985727 8.785868 8
 7.065910 1.528489 8.594374 8
 7.413507 2.305499 9.718981 8
 7.563960 2.329350 9.893290 8
 7.501750 2.447927 9.949656 8
 8.190020 2.426300 10.616308 8
 8.122610 2.331050 10.453650 8
 7.025963 1.672231 8.698176 8
 6.600846 2.932975 9.533794 8
 8.124784 1.717798 9.842575 8
 7.239058 1.351035 8.590064 8
 7.179577 3.233610 10.413169 8
 8.071854 0.420917 8.492765 8
 8.224896 3.609948 11.834830 8
 6.783769 0.483042 7.266804 8
 6.804168 0.361318 7.165475 8
 6.848816 2.968618 9.817408 8
 6.763456 3.051121 9.814559 8
 6.708418 2.887866 9.596254 8
 7.126564 2.429618 9.556162 8
 7.994965 1.638687 9.633638 8
 6.969264 3.105634 10.074880 8
 8.167719 0.849068 9.016776 8
 7.965651 1.536039 9.501672 8
 8.375373 0.580966 8.956338 8
 7.015406 2.209645 9.225028 8
 6.553434 3.253668 9.807077 8
 6.919560 2.163072 9.082611 8
 6.833597 2.217250 9.050828 8
 7.823123 2.586313 10.409427 8
 7.250711 3.717463 10.968162 8
 7.357793 3.705432 11.063212 8
 7.893880 1.056013 8.949879 8
 8.295401 1.002043 9.297436 8
 8.044533 2.262336 10.306857 8
 7.258426 1.044417 8.302826 8
 7.190665 0.931192 8.121839 8
 6.485501 4.018254 10.503744 8
 8.281182 3.844628 12.125796 8
 8.184880 3.793109 11.977983 8
 8.140535 3.900856 12.041382 8
 6.933664 4.371037 11.304679 8
 7.032129 4.300321 11.332422 8
 7.087327 4.451959 11.539264 8
 7.924122 3.904215 11.828330 8
 7.810811 3.992948 11.803755 8
 6.905020 0.667579 7.572588 8
 6.692377 3.259622 9.951980 8
 7.000378 1.790072 8.790427 8
 7.106781 1.745396 8.852153 8
 7.104016 1.896052 9.000051 8
 8.558815 0.590910 9.149732 8
 7.361111 0.000000 7.361111 8
 7.430360 0.115371 7.545732 8
 7.298603 0.081500 7.380100 8
 7.001577 1.985255 8.986811 8
 6.904934 2.032708 8.937619 8
 8.576487 1.580054 10.156530 8
 8.512167 1.507207 10.019373 8
 6.815573 3.308843 10.124389 8
 7.259796 3.145880 10.405662 8
 7.574777 0.208464 7.783237 8
 7.413603 0.246067 7.659666 8
 7.391330 2.057900 9.449210 8
 7.288234 2.111815 9.400030 8
 7.314125 1.977033 9.291141 8
 7.206226 2.005661 9.211867 8
 7.517454 0.318836 7.836285 8
 8.347806 0.472575 8.820379 8
 6.949171 2.859374 9.808528 8
 6.831521 2.857825 9.689326 8
 6.882554 2.715508 9.598042 8
 7.167843 0.736264 7.904094 8
 7.038102 0.646844 7.684934 8
 6.846932 1.120401 7.967317 8
 7.376606 0.756333 8.132928 8
 7.500000 0.000000 7.500000 8
 7.554602 1.571620 9.126193 8
 6.917846 4.123974 11.041802 8
 6.814268 1.252717 8.066965 8
 6.944895 1.193835 8.138708 8
 6.883154 0.113225 6.996379 8
 6.748885 3.832602 10.581467 8
 7.739520 3.436522 11.176030 8
 7.475721 1.154086 8.629785 8
 7.653986 2.107674 9.761648 8
 7.083333 0.000000 7.083333 8
 7.079720 0.141202 7.220917 8
 7.124539 3.959820 11.084340 8
 8.592486 0.390641 8.983122 8
 8.721608 0.441784 9.163389 8
 8.581511 0.496440 9.077943 8
 6.648148 3.030420 9.678539 8
 6.659159 2.606412 9.265544 8
 7.168542 1.126727 8.295248 8
 7.657166 0.302552 7.959717 8
 7.781382 0.302012 8.083390 8
 6.460124 3.478721 9.938829 8
 7.222222 0.000000 7.222222 8
 7.067441 0.778951 7.846379 8
 6.840494 2.576562 9.417031 8
 6.760593 2.649564 9.410136 8
 6.707620 2.517997 9.225596 8
 8.432581 3.883755 12.316301 8
 7.735209 2.199541 9.934736 8
 7.859236 2.189422 10.048643 8
 7.920929 2.087509 10.008425 8
 7.879289 3.139514 11.018795 8
 7.888206 3.296390 11.184585 8
 7.778308 3.199289 10.977590 8
 7.632497 1.874329 9.506812 8
 8.055555 0.000000 8.055555 8
 7.421768 2.171318 9.593062 8
 7.184696 3.631456 10.816134 8
 7.651947 2.850164 10.502102 8
 7.775370 2.930329 10.705692 8
 7.640660 2.984742 10.625397 8
 7.178379 2.105992 9.284353 8
 7.510874 2.241171 9.752031 8
 6.553916 3.018667 9.572555 8
 7.447333 3.485706 10.933028 8
 7.145138 4.312762 11.457878 8
 7.110127 4.224920 11.335025 8
 7.874085 0.115023 7.989103 8
 6.502028 0.681337 7.183349 8
 6.455020 3.605576 10.060574 8
 7.265856 0.824856 8.090693 8
 6.866995 1.028238 7.895215 8
 7.839534 3.393071 11.232599 8
 7.204153 3.827495 11.031628 8
 7.941402 2.601359 10.542754 8
 8.011380 2.521679 10.533049 8
 7.083027 3.295975 10.378979 8
 6.991859 2.737978 9.729823 8
 7.108499 2.672402 9.780884 8
 7.971704 3.223093 11.194781 8
 7.617286 0.798666 8.415939 8
 7.759981 2.779103 10.539069 8
 7.896862 2.826248 10.723096 8
 7.490658 2.861258 10.351910 8
 7.440787 2.773346 10.214132 8
 7.080760 3.837439 10.918182 8
 7.151046 3.739827 10.890852 8
 7.082345 3.659046 10.741375 8
 6.330319 3.680072 10.010370 8
 6.346057 3.572299 9.918337 8
 6.348061 3.445958 9.794000 8
 7.925094 0.350582 8.275664 8
 8.070436 0.288870 8.359310 8
 7.973966 0.206973 8.180945 8
 6.992469 1.889416 8.881864 8
 7.363416 3.152739 10.516145 8
 7.855732 0.225946 8.081674 8
 6.799769 2.448540 9.248280 8
 8.660844 0.299258 8.960096 8
 7.683034 4.079422 11.762443 8
 7.706547 3.940217 11.646754 8
 7.311299 1.434176 8.745455 8
 7.355800 1.524904 8.880684 8
 7.542164 1.765435 9.307579 8
 7.730455 3.088658 10.819100 8
 7.657597 3.226219 10.883807 8
 7.582279 3.102443 10.684715 8
 7.753076 0.535534 8.288604 8
 7.511289 4.077076 11.588346 8
 7.237609 2.614172 9.851759 8
 7.153166 2.542537 9.695681 8
 6.433274 0.580817 7.014080 8
 6.784701 3.180450 9.965130 8
 6.655578 3.156748 9.812299 8
 6.743394 0.907869 7.651248 8
 6.897636 3.204002 10.101626 8
 6.787325 2.759643 9.546942 8
 6.678010 2.730290 9.408271 8
 7.787888 3.623500 11.411380 8
 8.288482 1.412666 9.701139 8
 6.604926 0.235275 6.840195 8
 6.723753 0.280204 7.003954 8
 7.574619 3.319385 10.893997 8
 6.899308 0.555920 7.455222 8
 6.767800 0.593947 7.361735 8
 7.195971 1.807906 9.003855 8
 6.590637 1.189853 7.780468 8
 8.395570 0.967330 9.362893 8
 7.977349 2.168581 10.145913 8
 8.391410 1.494926 9.886327 8
 8.528203 1.201904 9.730098 8
 7.559259 0.720355 8.279600 8
 6.958165 2.625986 9.584127 8
 8.758950 1.115047 9.873996 8
 7.646367 0.999774 8.646125 8
 8.079580 3.432795 11.512362 8
 7.916667 0.000000 7.916667 8
 7.422709 2.508872 9.931565 8
 7.377967 2.654471 10.032425 8
 8.452407 1.297043 9.749449 8
 7.322326 2.547752 9.870063 8
 6.626881 2.198417 8.825270 8
 8.312034 2.436220 10.748242 8
 7.063766 1.154066 8.217814 8
 7.907538 3.607256 11.514787 8
 8.224897 2.317063 10.541952 8
 7.857933 2.691714 10.549633 8
 6.498920 0.145414 6.644331 8
 6.955204 0.201777 7.156977 8
 6.845220 0.241074 7.086288 8
 7.773939 3.304002 11.077941 8
 7.595392 1.680493 9.275865 8
 6.999979 3.608918 10.608878 8
 8.623773 1.464182 10.087951 8
 8.493809 1.396836 9.890634 8
 6.569833 0.765405 7.335225 8
 6.474845 0.818576 7.293406 8
 7.040461 2.535963 9.576400 8
 8.052592 0.914370 8.966957 8
 7.845520 3.024067 10.869572 8
 6.213589 3.874769 10.088337 8
 6.886305 2.395355 9.281638 8
 6.789903 2.320815 9.110692 8
 6.932283 2.288611 9.220871 8
 7.891593 2.942861 10.834445 8
 7.672304 3.346754 11.019054 8
 6.515819 0.965129 7.480932 8
 6.575046 0.857318 7.432349 8
 8.387638 1.378407 9.766044 8
 7.238861 1.890927 9.129761 8
 7.288260 1.771016 9.059253 8
 7.889970 1.982472 9.872422 8
 7.146887 0.834979 7.981851 8
 6.962265 2.992604 9.954848 8
 6.872154 3.083266 9.955402 8
 7.549607 2.157194 9.706780 8
 7.281088 0.725714 8.006788 8
 6.998342 2.405602 9.403927 8
 6.578643 0.084081 6.662723 8
 7.569988 2.907280 10.477265 8
 7.995681 2.910770 10.906438 8
 7.740407 0.769692 8.510088 8
 7.662305 0.690173 8.352467 8
 7.794248 0.634852 8.429087 8
 6.645611 0.936113 7.581708 8
 6.675809 2.285191 8.960974 8
 8.120616 2.909976 11.030576 8
 6.903252 4.256149 11.159380 8
 7.702896 0.885367 8.588246 8
 8.467130 0.526815 8.993939 8
 6.451737 3.351694 9.803412 8
 7.954675 0.465097 8.419759 8
 7.677302 2.321094 9.998376 8
 7.830323 0.394099 8.224417 8
 7.622062 2.226642 9.848688 8
 6.944445 0.000000 6.944445 8
 7.944530 3.022892 10.967413 8
 8.004569 3.123369 11.127928 8
 8.473415 0.416624 8.890036 8
 6.918958 2.495602 9.414544 8
 8.086451 2.148384 10.234824 8
 7.999796 2.044643 10.044426 8
 8.195121 2.129306 10.324414 8
 8.059409 3.021968 11.081365 8
 7.849445 0.496616 8.346052 8
 7.904535 0.585217 8.489745 8
 6.987447 0.093535 7.080977 8
 8.130690 2.812789 10.943467 8
 8.075289 3.231018 11.306293 8
 6.511671 1.081840 7.593493 8
 7.100437 2.043079 9.143493 8
 8.228585 2.822122 11.050691 8
 6.527778 0.000000 6.527778 8
 8.158250 2.233232 10.391468 8
 7.983811 0.092829 8.076639 8
 8.019016 3.320478 11.339485 8
 6.901521 0.436730 7.338243 8
 7.622042 2.442154 10.064181 8
 7.557285 0.622383 8.179660 8
 6.924089 0.321164 7.245245 8
 6.332080 3.337939 9.669990 8
 7.549659 2.792630 10.342280 8
 7.013205 2.100784 9.113967 8
 1 2 3 
 4 5 6 
 7 8 9 
 8 10 9 
 11 12 13 
 14 15 16 
 17 18 19 
 20 21 22 
 23 24 25 
 26 27 28 
 29 30 31 
 32 1 3 
 33 34 9 
 35 36 37 
 38 39 40 
 41 24 23 
 42 43 44 
 45 46 47 
 48 49 50 
 51 52 53 
 54 13 55 
 48 56 49 
 57 58 59 
 26 28 60 
 61 62 63 
 55 13 12 
 64 16 15 
 65 42 44 
 66 67 58 
 68 33 9 
 69 70 71 
 32 58 1 
 72 73 74 
 75 76 77 
 78 79 80 
 72 81 73 
 35 37 82 
 83 82 37 
 84 77 76 
 85 86 87 
 88 89 90 
 91 21 20 
 92 93 94 
 95 96 97 
 98 99 100 
 52 101 53 
 97 96 102 
 103 104 105 
 106 107 108 
 109 103 105 
 110 21 91 
 48 111 112 
 113 112 111 
 95 97 114 
 115 116 117 
 57 118 119 
 120 119 118 
 121 122 123 
 124 102 96 
 125 126 24 
 127 128 129 
 130 129 128 
 38 40 131 
 132 131 40 
 133 134 135 
 45 136 46 
 97 137 114 
 138 104 23 
 139 140 141 
 142 40 143 
 144 145 146 
 147 148 149 
 17 150 18 
 35 151 152 
 35 152 36 
 153 154 71 
 155 81 156 
 79 157 80 
 158 159 160 
 161 162 163 
 133 71 154 
 164 165 166 
 167 166 165 
 129 156 81 
 168 169 170 
 171 172 173 
 174 6 175 
 176 177 178 
 90 89 179 
 180 141 140 
 122 181 123 
 57 59 118 
 17 19 182 
 171 183 172 
 35 184 151 
 185 186 187 
 188 189 190 
 155 156 18 
 191 137 192 
 193 194 195 
 196 197 198 
 173 199 200 
 52 201 101 
 130 101 201 
 171 202 183 
 142 163 162 
 203 204 205 
 196 206 197 
 207 208 209 
 115 210 116 
 67 1 58 
 211 13 54 
 176 212 213 
 214 215 216 
 217 218 215 
 219 159 158 
 220 170 169 
 23 104 41 
 193 221 194 
 105 222 223 
 224 223 222 
 225 226 227 
 64 15 228 
 225 227 229 
 230 205 204 
 40 39 143 
 231 232 233 
 234 235 236 
 51 236 235 
 237 238 239 
 45 240 146 
 150 241 242 
 243 244 245 
 246 244 243 
 247 199 173 
 248 94 93 
 249 183 250 
 185 63 62 
 134 251 135 
 185 62 186 
 221 252 194 
 242 241 253 
 57 66 58 
 249 254 183 
 145 255 256 
 171 173 257 
 132 40 198 
 98 100 258 
 259 106 108 
 260 261 114 
 262 190 189 
 161 263 162 
 207 216 264 
 265 266 267 
 191 267 266 
 68 268 33 
 193 195 269 
 253 241 123 
 270 271 272 
 273 274 275 
 38 276 39 
 110 91 277 
 278 279 280 
 281 258 209 
 100 209 258 
 282 233 232 
 283 284 285 
 286 285 284 
 167 165 277 
 34 287 9 
 7 9 287 
 130 156 129 
 288 256 255 
 232 231 289 
 114 261 95 
 289 231 290 
 291 292 293 
 294 87 86 
 61 63 295 
 164 296 165 
 64 160 16 
 297 16 160 
 191 192 267 
 298 299 300 
 51 301 52 
 212 302 213 
 153 117 116 
 124 303 177 
 304 305 187 
 153 71 117 
 306 28 27 
 14 307 15 
 308 309 310 
 272 271 311 
 57 312 66 
 313 314 315 
 282 296 316 
 317 316 296 
 66 312 318 
 147 149 319 
 14 320 79 
 321 274 273 
 322 268 68 
 323 134 250 
 249 250 134 
 207 324 208 
 70 117 71 
 88 90 325 
 326 325 90 
 327 328 329 
 48 330 111 
 142 162 40 
 69 71 86 
 14 16 331 
 14 331 320 
 332 33 268 
 10 204 9 
 322 236 53 
 333 46 82 
 168 212 169 
 155 73 81 
 297 334 16 
 36 252 37 
 249 335 47 
 113 111 336 
 337 280 279 
 203 68 9 
 338 339 272 
 270 272 339 
 165 340 277 
 297 160 159 
 322 53 101 
 189 159 43 
 341 342 97 
 262 42 343 
 199 343 42 
 35 344 184 
 262 189 43 
 164 345 296 
 254 46 333 
 47 46 254 
 306 346 28 
 347 28 346 
 121 348 122 
 196 162 263 
 298 300 349 
 281 350 351 
 352 353 354 
 98 355 356 
 219 44 43 
 185 187 357 
 191 266 99 
 337 358 74 
 359 360 361 
 146 240 362 
 363 364 365 
 366 367 2 
 211 54 368 
 369 368 54 
 127 129 370 
 322 371 236 
 372 373 364 
 133 135 71 
 374 375 376 
 377 376 375 
 48 50 330 
 304 187 186 
 372 378 373 
 133 379 134 
 188 37 252 
 121 123 241 
 372 229 227 
 380 381 382 
 72 370 81 
 383 384 143 
 291 385 292 
 386 39 276 
 363 387 364 
 321 223 119 
 64 388 158 
 207 264 324 
 125 228 15 
 249 134 379 
 176 178 389 
 390 391 118 
 47 335 240 
 19 18 156 
 106 392 107 
 17 393 150 
 308 266 394 
 265 394 266 
 286 273 395 
 306 395 273 
 386 60 28 
 288 244 246 
 24 126 396 
 145 256 146 
 245 244 94 
 397 206 398 
 323 251 134 
 176 399 177 
 400 401 402 
 403 329 328 
 404 175 6 
 405 275 274 
 372 227 406 
 407 406 227 
 408 74 73 
 397 409 206 
 383 410 384 
 411 412 413 
 300 414 349 
 415 126 416 
 417 416 126 
 418 419 420 
 125 24 421 
 2 367 311 
 422 85 87 
 374 423 375 
 98 260 99 
 191 99 260 
 341 424 301 
 82 46 344 
 425 426 427 
 377 375 428 
 317 296 345 
 313 429 314 
 341 301 342 
 283 158 388 
 120 118 391 
 147 430 278 
 192 301 431 
 432 433 303 
 45 256 246 
 144 402 401 
 283 285 158 
 219 158 285 
 226 434 227 
 45 47 240 
 313 315 49 
 435 89 305 
 88 305 89 
 408 73 436 
 253 436 73 
 249 47 254 
 347 437 28 
 386 28 437 
 61 438 62 
 333 172 254 
 183 254 172 
 308 439 309 
 341 97 440 
 441 165 442 
 322 101 443 
 444 445 287 
 157 79 320 
 446 419 418 
 26 60 447 
 425 448 426 
 449 426 448 
 64 158 160 
 72 74 358 
 129 81 370 
 97 342 137 
 297 189 221 
 188 221 189 
 450 204 451 
 451 204 10 
 41 421 24 
 203 9 204 
 452 182 453 
 454 453 182 
 197 365 364 
 188 190 37 
 188 252 221 
 59 239 238 
 253 123 436 
 455 436 123 
 444 380 382 
 124 177 399 
 408 456 457 
 408 436 456 
 7 287 445 
 323 458 459 
 460 459 458 
 51 53 236 
 230 204 450 
 45 146 256 
 359 361 461 
 234 236 462 
 321 119 274 
 32 239 58 
 59 58 239 
 407 227 463 
 411 413 464 
 347 295 63 
 153 116 465 
 193 320 331 
 72 358 370 
 466 467 356 
 283 468 284 
 283 469 468 
 98 258 355 
 120 274 119 
 359 2 67 
 294 459 87 
 460 87 459 
 400 465 401 
 51 431 301 
 41 104 470 
 471 472 473 
 338 272 367 
 139 141 474 
 294 135 251 
 95 475 96 
 476 477 50 
 84 89 478 
 479 480 328 
 405 295 346 
 347 346 295 
 176 389 212 
 29 212 389 
 281 209 208 
 291 481 62 
 332 268 482 
 224 312 223 
 483 329 484 
 149 484 329 
 29 169 212 
 452 399 213 
 176 213 399 
 308 485 266 
 327 329 381 
 36 152 486 
 452 440 399 
 168 302 212 
 487 108 488 
 107 488 108 
 7 445 8 
 476 8 445 
 234 472 489 
 490 357 491 
 1 67 2 
 265 431 235 
 492 361 360 
 493 293 292 
 40 162 198 
 95 261 475 
 494 184 344 
 236 371 462 
 164 416 495 
 100 99 485 
 224 318 312 
 369 54 496 
 234 473 472 
 110 448 21 
 187 305 491 
 245 497 184 
 291 62 438 
 498 447 60 
 59 238 118 
 105 223 469 
 444 499 445 
 466 261 467 
 164 495 345 
 130 128 101 
 94 244 500 
 84 179 89 
 26 501 27 
 207 502 216 
 165 296 442 
 487 90 179 
 151 184 497 
 226 503 434 
 504 20 505 
 199 247 343 
 142 143 384 
 157 320 11 
 12 11 320 
 234 489 235 
 125 15 307 
 248 506 497 
 359 461 2 
 191 260 114 
 476 50 507 
 466 475 261 
 323 250 202 
 183 202 250 
 149 329 319 
 441 340 165 
 228 421 470 
 45 246 136 
 270 508 271 
 470 421 41 
 471 427 426 
 509 233 316 
 282 316 233 
 193 334 221 
 286 284 273 
 321 273 284 
 120 510 274 
 308 310 511 
 303 433 177 
 316 512 509 
 83 37 190 
 326 90 488 
 487 488 90 
 193 269 320 
 207 209 310 
 288 246 256 
 399 440 102 
 432 354 353 
 223 312 119 
 110 513 448 
 487 76 514 
 75 514 76 
 515 516 392 
 390 237 292 
 98 467 260 
 65 27 501 
 192 431 267 
 517 472 420 
 471 420 472 
 494 46 136 
 390 385 391 
 187 491 357 
 191 114 137 
 64 228 518 
 483 382 381 
 85 69 86 
 78 307 79 
 14 79 307 
 227 434 463 
 281 208 350 
 374 25 423 
 265 267 431 
 19 519 182 
 390 292 385 
 248 520 521 
 435 522 523 
 524 445 499 
 17 213 302 
 454 182 519 
 196 398 206 
 403 328 480 
 125 421 228 
 100 511 209 
 333 82 525 
 471 426 526 
 527 181 122 
 197 373 198 
 504 505 507 
 127 482 268 
 449 289 290 
 528 529 530 
 193 331 334 
 185 384 410 
 17 182 213 
 452 213 182 
 313 49 56 
 449 531 426 
 517 532 472 
 52 301 424 
 203 371 68 
 533 523 534 
 36 486 194 
 535 486 152 
 138 536 537 
 248 521 506 
 107 392 516 
 125 538 126 
 321 468 223 
 322 68 371 
 83 525 82 
 196 198 162 
 529 339 530 
 493 292 237 
 132 198 373 
 105 469 109 
 369 521 520 
 347 63 539 
 327 540 541 
 542 423 25 
 425 21 448 
 386 543 39 
 366 2 461 
 50 477 330 
 542 25 396 
 24 396 25 
 528 530 544 
 111 544 530 
 455 123 181 
 404 413 412 
 492 537 536 
 332 541 540 
 142 384 163 
 490 163 384 
 185 410 63 
 487 514 545 
 425 427 546 
 192 342 301 
 449 290 547 
 173 172 525 
 400 154 465 
 153 465 154 
 61 391 385 
 103 470 104 
 144 146 362 
 369 520 368 
 471 473 427 
 12 320 269 
 199 42 501 
 415 396 126 
 548 549 550 
 139 550 549 
 22 505 20 
 180 406 141 
 407 141 406 
 196 263 398 
 515 398 263 
 449 513 289 
 195 496 55 
 479 370 358 
 98 356 467 
 405 274 510 
 504 49 315 
 517 420 419 
 533 551 293 
 265 235 489 
 498 60 276 
 386 276 60 
 262 343 190 
 83 190 343 
 51 235 431 
 5 4 552 
 203 205 462 
 291 293 551 
 449 448 513 
 460 458 463 
 407 463 458 
 230 450 546 
 195 486 496 
 553 547 290 
 125 307 538 
 337 480 358 
 214 216 502 
 91 20 315 
 504 315 20 
 35 82 344 
 352 30 554 
 29 554 30 
 260 467 261 
 333 525 172 
 192 137 342 
 121 241 170 
 168 170 241 
 404 484 175 
 528 464 529 
 5 529 464 
 26 447 555 
 155 242 73 
 253 73 242 
 483 381 329 
 556 362 240 
 490 491 325 
 411 382 412 
 245 94 497 
 120 391 510 
 337 74 557 
 298 208 324 
 323 558 458 
 297 221 334 
 306 273 275 
 390 118 238 
 415 166 559 
 88 491 305 
 54 55 496 
 266 485 99 
 65 501 42 
 487 545 108 
 535 521 496 
 369 496 521 
 297 159 189 
 487 179 76 
 291 438 385 
 62 481 186 
 403 480 279 
 407 458 560 
 64 518 388 
 294 86 135 
 71 135 86 
 199 555 200 
 548 200 555 
 415 559 561 
 248 497 94 
 337 557 280 
 185 357 384 
 490 384 357 
 26 555 501 
 106 562 392 
 248 93 520 
 304 186 481 
 281 355 258 
 563 564 418 
 446 418 564 
 403 319 329 
 524 544 330 
 111 330 544 
 372 364 229 
 387 229 364 
 199 501 555 
 133 565 379 
 524 499 566 
 171 257 550 
 548 550 257 
 390 238 237 
 567 568 80 
 164 166 416 
 415 416 166 
 110 277 340 
 332 482 541 
 567 80 569 
 553 218 570 
 178 177 433 
 571 572 550 
 397 398 573 
 304 481 551 
 535 496 486 
 567 495 568 
 231 574 290 
 29 31 169 
 403 279 430 
 553 290 574 
 57 119 312 
 471 526 418 
 571 550 474 
 562 397 573 
 149 175 484 
 234 205 473 
 180 131 378 
 34 380 287 
 444 287 380 
 323 459 251 
 375 423 56 
 313 56 423 
 173 525 247 
 178 353 554 
 352 554 353 
 272 311 367 
 173 200 257 
 217 575 564 
 230 427 473 
 417 126 538 
 70 115 117 
 504 507 49 
 50 49 507 
 476 505 8 
 10 8 505 
 61 385 438 
 171 550 572 
 556 379 565 
 220 348 170 
 524 330 477 
 217 215 575 
 479 328 541 
 92 94 500 
 323 202 558 
 262 43 42 
 493 576 293 
 149 148 175 
 441 513 340 
 110 340 513 
 377 577 361 
 366 361 577 
 327 380 540 
 197 364 373 
 180 378 406 
 372 406 378 
 219 285 44 
 286 44 285 
 476 507 505 
 36 194 252 
 195 194 486 
 553 574 578 
 138 537 104 
 231 578 574 
 132 378 131 
 139 474 550 
 171 572 202 
 174 175 148 
 579 545 514 
 458 558 560 
 387 225 229 
 282 442 296 
 34 540 380 
 317 345 580 
 567 580 345 
 78 538 307 
 460 434 581 
 503 581 434 
 494 344 46 
 374 23 25 
 411 566 499 
 503 422 581 
 517 439 394 
 309 582 502 
 411 499 382 
 326 583 325 
 490 325 583 
 61 295 510 
 405 510 295 
 422 87 581 
 22 451 505 
 10 505 451 
 178 554 389 
 29 389 554 
 571 560 558 
 327 381 380 
 366 461 361 
 209 511 310 
 78 568 538 
 377 361 536 
 492 536 361 
 533 534 551 
 528 566 464 
 411 464 566 
 460 581 87 
 103 388 518 
 476 445 477 
 524 477 445 
 563 418 526 
 308 394 439 
 230 473 205 
 515 573 398 
 483 412 382 
 306 275 346 
 283 109 469 
 314 429 561 
 542 561 429 
 219 43 159 
 309 502 310 
 441 232 289 
 151 497 506 
 264 299 324 
 16 334 331 
 446 564 575 
 314 559 584 
 579 259 545 
 63 410 539 
 83 247 525 
 283 388 109 
 471 418 420 
 124 399 102 
 556 565 402 
 161 163 583 
 490 583 163 
 121 170 348 
 383 143 543 
 150 393 241 
 168 241 393 
 203 462 371 
 155 18 242 
 150 242 18 
 435 478 89 
 39 543 143 
 214 575 215 
 571 141 560 
 407 560 141 
 132 373 378 
 409 363 365 
 446 582 419 
 61 510 391 
 265 532 394 
 460 463 434 
 65 395 27 
 306 27 395 
 571 474 141 
 127 268 443 
 524 566 544 
 180 140 131 
 517 394 532 
 38 140 585 
 38 585 276 
 441 289 513 
 417 538 568 
 556 240 335 
 400 402 565 
 161 583 586 
 326 586 583 
 314 584 315 
 533 293 576 
 479 482 370 
 455 456 436 
 127 443 128 
 313 423 429 
 542 429 423 