TITLE      =  "2D FE Unstructured grid data" 
VARIABLES = "X", "Y", "U", "Dom" 
ZONE T="P1", F=FEPOINT, N= 590 E= 1082  ET=TRIANGLE 
 6.701519 1.785672 8.487168 6
 6.879232 1.891371 8.770583 6
 6.723532 1.909799 8.633307 6
 6.484631 2.419052 8.903655 6
 6.567963 2.290683 8.858618 6
 6.582386 2.496284 9.078647 6
 5.021739 1.179394 6.201102 6
 4.893626 1.277357 6.170952 6
 4.907285 1.106014 6.013268 6
 6.442039 2.093051 8.535058 6
 6.397256 1.985062 8.382287 6
 6.536678 1.996341 8.532992 6
 5.530592 1.588824 7.119383 6
 5.418162 1.689044 7.107168 6
 5.438151 1.531744 6.969859 6
 5.320665 1.604995 6.925622 6
 6.542043 2.143331 8.685339 6
 5.075511 3.255838 8.331315 6
 4.968703 3.179825 8.148496 6
 5.122739 3.104407 8.227102 6
 5.530718 0.481856 6.012559 6
 5.695170 0.474101 6.169255 6
 5.646289 0.628994 6.275266 6
 4.814559 2.925099 7.739622 6
 4.701535 3.049531 7.751029 6
 4.676769 2.899004 7.575733 6
 6.048975 2.539656 8.588592 6
 6.016453 2.402017 8.418429 6
 6.128496 2.422999 8.551460 6
 5.697073 2.217800 7.914834 6
 5.866033 2.207757 8.073748 6
 5.789660 2.318496 8.108124 6
 5.163724 1.126447 6.290144 6
 5.045081 1.009605 6.054659 6
 6.070206 3.682619 9.752800 6
 6.214737 3.731762 9.946478 6
 6.058446 3.837669 9.896099 6
 6.213589 3.874769 10.088337 6
 4.845317 3.097768 7.943050 6
 5.007074 3.044911 8.051947 6
 5.292080 1.380322 6.672369 6
 5.350010 1.474343 6.824313 6
 5.214271 1.518538 6.732768 6
 5.167317 1.389628 6.556912 6
 5.507239 3.685842 9.193055 6
 5.535018 3.555948 9.090933 6
 5.619704 3.700251 9.319926 6
 5.682586 3.599695 9.282248 6
 6.184692 2.536127 8.720779 6
 5.707364 1.638875 7.346202 6
 5.555358 1.705302 7.260623 6
 5.626503 1.565697 7.192169 6
 6.505392 2.912363 9.417727 6
 6.463891 3.083112 9.546970 6
 6.394594 2.906682 9.301240 6
 6.322877 2.991369 9.314216 6
 5.644777 1.756792 7.401534 6
 6.008340 2.139752 8.148052 6
 6.117687 2.149634 8.267283 6
 6.089433 2.274208 8.363604 6
 6.361014 1.300424 7.661410 6
 6.245265 1.175609 7.420854 6
 6.418029 1.163651 7.581660 6
 6.311475 1.063067 7.374519 6
 5.981593 2.283386 8.264938 6
 5.380229 0.370990 5.751211 6
 5.504284 0.305714 5.809990 6
 5.343924 2.289512 7.633394 6
 5.340167 2.452921 7.793047 6
 5.228862 2.401259 7.630077 6
 6.534350 1.620327 8.154647 6
 6.507941 1.506101 8.014021 6
 6.676695 1.483973 8.160644 6
 5.832567 1.649027 7.481561 6
 5.784334 1.788280 7.572578 6
 5.977030 3.962249 9.939258 6
 5.876711 3.891672 9.768361 6
 4.473174 3.256110 7.729250 6
 4.567456 3.148981 7.716401 6
 4.605954 3.329224 7.935147 6
 4.706223 3.210999 7.917190 6
 5.433549 2.599946 8.033451 6
 5.274381 2.564524 7.838861 6
 5.214097 3.331745 8.545803 6
 5.065293 3.368719 8.433978 6
 6.692447 1.608083 8.300500 6
 5.846843 3.183881 9.030693 6
 5.884804 3.080605 8.965370 6
 5.940642 3.220175 9.160789 6
 5.957494 3.764695 9.722169 6
 5.345166 4.081958 9.427106 6
 5.223313 4.165204 9.388500 6
 5.225334 4.010153 9.235471 6
 5.087319 4.059354 9.146654 6
 5.003970 3.950645 8.954593 6
 4.940084 4.025068 8.965135 6
 6.232086 0.489105 6.721179 6
 6.130297 0.402729 6.533012 6
 6.309723 0.352951 6.662665 6
 6.175150 0.288281 6.463422 6
 5.137704 2.516743 7.654405 6
 5.070802 2.638387 7.709146 6
 4.988203 2.540515 7.528678 6
 5.129714 1.775617 6.905291 6
 4.972393 1.838057 6.810407 6
 5.032820 1.697711 6.730488 6
 5.614038 0.973464 6.587478 6
 5.434222 0.993871 6.428071 6
 5.499931 0.878386 6.378295 6
 6.619639 1.893718 8.513337 6
 6.669048 2.050785 8.719805 6
 4.592384 2.319388 6.911728 6
 4.691078 2.196561 6.887597 6
 4.696296 2.345913 7.042164 6
 4.580345 2.206484 6.786786 6
 6.124938 2.025252 8.150157 6
 6.055794 1.888699 7.944461 6
 6.204272 1.876331 8.080575 6
 5.102249 1.883111 6.985321 6
 5.997469 3.137192 9.134629 6
 5.043925 1.413306 6.457194 6
 5.104763 1.279750 6.384478 6
 4.979978 4.129759 9.109718 6
 4.462722 2.564050 7.026730 6
 4.526483 2.659689 7.186131 6
 4.347877 2.679267 7.027102 6
 4.475300 2.761858 7.237115 6
 6.453895 2.610102 9.063964 6
 6.349832 2.687730 9.037531 6
 6.323233 2.547328 8.870528 6
 6.232348 2.645741 8.878054 6
 5.238379 2.222766 7.461106 6
 4.798086 2.091643 6.889685 6
 4.663584 2.037987 6.701526 6
 5.118882 3.475273 8.594124 6
 6.230560 1.344904 7.575441 6
 6.201416 1.471436 7.672826 6
 6.086552 1.410100 7.496628 6
 6.197185 1.710938 7.908093 6
 6.084925 1.777562 7.862456 6
 4.694458 3.842130 8.536573 6
 4.748693 3.756030 8.504703 6
 4.857194 3.886184 8.743354 6
 4.935095 3.324694 8.259756 6
 5.745697 3.173218 8.918888 6
 5.735101 3.058170 8.793238 6
 4.854363 3.730528 8.584867 6
 6.130081 1.262278 7.392333 6
 5.523998 1.106661 6.630627 6
 5.616538 0.374448 5.990971 6
 4.769942 2.280101 7.049999 6
 4.871974 2.324351 7.196280 6
 4.797622 2.415462 7.213046 6
 5.458736 2.481935 7.940631 6
 5.155808 4.309731 9.465527 6
 5.021509 4.346021 9.367519 6
 5.072066 4.195681 9.267734 6
 5.546039 4.041147 9.587172 6
 5.645875 3.954549 9.600399 6
 5.657291 4.098102 9.755369 6
 4.576276 2.986893 7.563129 6
 5.889647 2.035367 7.924975 6
 5.574383 0.760526 6.334889 6
 5.472854 0.651649 6.124486 6
 5.677823 2.356534 8.034319 6
 5.014447 3.851910 8.866329 6
 5.157799 2.308057 7.465813 6
 4.991894 2.301419 7.293272 6
 5.106811 2.203736 7.310504 6
 4.551707 2.098530 6.650193 6
 5.430822 2.384359 7.815138 6
 4.905974 2.997900 7.903832 6
 5.929688 2.502023 8.431669 6
 5.965956 2.652368 8.618286 6
 5.839457 2.581542 8.420961 6
 5.382433 3.262294 8.644686 6
 5.349648 3.407403 8.757016 6
 5.069596 2.414073 7.483626 6
 4.902018 0.986021 5.888015 6
 6.033929 2.753751 8.787641 6
 6.050534 2.866902 8.917394 6
 5.894266 2.803605 8.697832 6
 6.422426 1.621216 8.043613 6
 6.284449 1.579454 7.863875 6
 6.390977 1.521575 7.912522 6
 5.944719 2.927681 8.872360 6
 6.350657 3.114302 9.464925 6
 5.404654 3.643694 9.048316 6
 6.012587 0.979377 6.991941 6
 5.989002 1.095738 7.084714 6
 5.884440 1.047806 6.932221 6
 6.331472 1.699374 8.030821 6
 5.899824 0.937686 6.837488 6
 5.176482 3.200482 8.376928 6
 6.086993 0.833166 6.920140 6
 6.152033 0.968888 7.120902 6
 5.613404 0.247793 5.861194 6
 5.775684 0.178337 5.954014 6
 5.738230 0.320551 6.058770 6
 5.846208 1.398244 7.244424 6
 5.911312 1.262849 7.174133 6
 5.969497 1.377423 7.346889 6
 4.980274 3.545190 8.525433 6
 4.992145 3.435794 8.427909 6
 6.437969 2.501460 8.939392 6
 5.938301 3.649847 9.588123 6
 6.056940 3.532387 9.589298 6
 5.894660 3.516148 9.410772 6
 5.076163 3.588451 8.664577 6
 5.056581 2.785297 7.841840 6
 5.135196 2.938230 8.073386 6
 4.979111 2.910539 7.889613 6
 6.580320 1.413871 7.994168 6
 6.676661 1.313509 7.990150 6
 5.815335 0.449445 6.264765 6
 4.667202 3.462225 8.129399 6
 4.769167 3.354741 8.123877 6
 5.026401 1.985366 7.011725 6
 5.070536 2.087768 7.158262 6
 4.939309 2.094151 7.033414 6
 6.296707 3.204232 9.500914 6
 6.185885 3.204252 9.390112 6
 6.239849 3.085736 9.325547 6
 5.244003 3.003819 8.247778 6
 4.640522 2.762918 7.403398 6
 4.891725 1.989285 6.880967 6
 5.656200 0.116656 5.772851 6
 5.387218 3.530872 8.918056 6
 4.970611 2.699820 7.670390 6
 4.802077 2.705404 7.507442 6
 4.884775 2.618406 7.503145 6
 4.896239 2.810410 7.706612 6
 4.562850 2.864707 7.427519 6
 6.458221 2.769819 9.228009 6
 5.791094 1.253505 7.044571 6
 6.623591 1.689522 8.313093 6
 5.491504 3.133132 8.624597 6
 5.603273 3.042680 8.645919 6
 5.642973 3.185237 8.828176 6
 5.131914 0.869455 6.001347 6
 4.979466 0.893651 5.873093 6
 6.429959 3.207061 9.636988 6
 5.639409 1.351996 6.991375 6
 5.700864 1.196129 6.896968 6
 5.751071 1.354306 7.105348 6
 5.853254 2.683828 8.537043 6
 5.776108 0.965661 6.741745 6
 5.746908 1.073127 6.820013 6
 6.800164 1.985727 8.785868 6
 5.253133 3.592055 8.845156 6
 5.149763 3.675928 8.825663 6
 4.840199 3.236122 8.076285 6
 6.021003 1.303025 7.323997 6
 5.521235 3.272081 8.793283 6
 4.946111 4.241687 9.187784 6
 4.370944 3.065555 7.436463 6
 4.445385 2.912859 7.358202 6
 4.486003 3.063442 7.549405 6
 5.809717 3.636134 9.445830 6
 6.220135 3.313431 9.533542 6
 5.754136 3.997911 9.752024 6
 5.877999 4.044163 9.922148 6
 4.476840 2.359542 6.836339 6
 4.469009 2.230560 6.699524 6
 6.111645 3.123548 9.235162 6
 4.749104 1.959170 6.708229 6
 6.332080 3.337939 9.669990 6
 5.924449 1.697210 7.621630 6
 6.317006 1.807146 8.124128 6
 6.498818 1.877933 8.376730 6
 5.544936 3.387389 8.932298 6
 5.672415 3.443717 9.116095 6
 5.817223 2.939673 8.756864 6
 6.404159 1.871603 8.275739 6
 6.324122 0.610765 6.934875 6
 6.351065 0.492053 6.843108 6
 5.964937 0.861226 6.826145 6
 5.967681 0.740476 6.708142 6
 5.254696 3.469616 8.724278 6
 5.356595 3.148484 8.505046 6
 5.688493 2.933833 8.622293 6
 6.096727 0.612747 6.709455 6
 6.209965 0.725599 6.935548 6
 6.069672 0.717208 6.786861 6
 5.416667 0.000000 5.416667 6
 5.555555 0.000000 5.555555 6
 5.504745 0.142925 5.647668 6
 5.197884 0.982405 6.180268 6
 5.300575 1.056993 6.357543 6
 6.319388 0.847432 7.166801 6
 6.376384 0.726212 7.102581 6
 6.351488 2.797552 9.149002 6
 5.559829 2.921219 8.481011 6
 5.639620 2.821225 8.460810 6
 5.776990 0.694899 6.471874 6
 5.785912 0.573163 6.359056 6
 6.204954 0.596510 6.801448 6
 5.275603 3.211721 8.487288 6
 4.759320 3.939040 8.698338 6
 4.299214 2.967769 7.266944 6
 6.412480 2.222630 8.635074 6
 6.109220 1.114250 7.223446 6
 6.017458 1.194945 7.212377 6
 4.892799 3.621217 8.513984 6
 4.877970 3.460608 8.338543 6
 4.805853 3.550478 8.356304 6
 6.177104 2.218388 8.395458 6
 5.736123 0.856853 6.592954 6
 6.259442 2.007288 8.266701 6
 5.053280 1.586605 6.639842 6
 5.171651 1.655489 6.827100 6
 5.094077 1.486866 6.580904 6
 5.857598 0.815424 6.673001 6
 4.995025 2.181149 7.176129 6
 6.111111 0.000000 6.111111 6
 6.250000 0.000000 6.250000 6
 6.180937 0.137478 6.318411 6
 5.898433 2.361704 8.260097 6
 4.413340 2.452439 6.865734 6
 4.365158 2.329854 6.694969 6
 5.636862 1.106228 6.743063 6
 5.982413 1.512895 7.495279 6
 5.834264 1.546674 7.380908 6
 5.553351 2.008258 7.561570 6
 5.591503 2.147502 7.738966 6
 5.479326 2.095993 7.575279 6
 5.535244 3.911534 9.446754 6
 6.474845 0.818576 7.293406 6
 6.385768 0.954320 7.340071 6
 6.515819 0.965129 7.480932 6
 6.025159 1.666218 7.691346 6
 6.119349 1.567009 7.686328 6
 6.462369 1.397370 7.859714 6
 6.324215 1.436751 7.760941 6
 6.207385 3.602029 9.809393 6
 5.678832 0.759675 6.438487 6
 5.847640 0.347198 6.194828 6
 5.674036 2.063046 7.737041 6
 5.589827 1.204062 6.793861 6
 6.571663 1.316208 7.887850 6
 6.483446 1.273219 7.756642 6
 5.291018 1.165540 6.456530 6
 5.622250 0.846234 6.468463 6
 4.835374 3.996528 8.831890 6
 5.878862 0.239091 6.117942 6
 5.876892 0.663522 6.540401 6
 5.972222 0.000000 5.972222 6
 6.067082 0.109985 6.177065 6
 5.898426 0.116071 6.014492 6
 6.066569 3.266784 9.333323 6
 5.330670 3.718760 9.049401 6
 5.229077 3.752170 8.981215 6
 5.748894 3.857811 9.606688 6
 5.401428 0.214096 5.615516 6
 5.000618 3.700143 8.700731 6
 5.123907 3.795362 8.919242 6
 4.555039 3.463412 8.018429 6
 5.387472 0.522666 5.910123 6
 4.540211 2.455931 6.996098 6
 4.611162 2.568521 7.179645 6
 5.404268 1.122500 6.526741 6
 5.468201 1.238726 6.706898 6
 4.675114 2.456182 7.131255 6
 4.762679 2.571348 7.333991 6
 5.389453 0.105653 5.495100 6
 5.932649 1.802741 7.735357 6
 4.931655 3.792191 8.723821 6
 5.252491 3.116881 8.369330 6
 5.789452 2.447912 8.237322 6
 5.654687 2.474114 8.128758 6
 5.359257 0.759984 6.119221 6
 5.209572 0.706741 5.916295 6
 5.348751 0.647325 5.996060 6
 5.553119 2.562042 8.115125 6
 5.494925 2.694721 8.189606 6
 5.621850 2.687035 8.308841 6
 5.438052 1.373489 6.811508 6
 5.350778 1.260211 6.610955 6
 5.708072 1.483647 7.191685 6
 5.457215 1.809657 7.266829 6
 5.567788 1.866657 7.434406 6
 5.416706 1.952760 7.369429 6
 6.103865 3.968939 10.072784 6
 4.928566 2.422585 7.351109 6
 5.769532 3.529817 9.299324 6
 6.177589 3.490413 9.667974 6
 5.358227 2.687617 8.045807 6
 5.292158 4.288077 9.580222 6
 5.353764 4.366374 9.720126 6
 5.237947 4.414595 9.652532 6
 5.303451 2.895233 8.198643 6
 5.403417 2.797689 8.201065 6
 5.429600 2.915470 8.345033 6
 6.502028 0.681337 7.183349 6
 5.654665 4.222553 9.877202 6
 5.770917 4.139910 9.910810 6
 5.793844 4.270030 10.063857 6
 6.144776 3.030098 9.174842 6
 5.468232 0.781475 6.249687 6
 5.004983 1.311464 6.316411 6
 6.321735 2.117894 8.439593 6
 4.921088 1.717341 6.638385 6
 4.409590 2.128758 6.538301 6
 6.574481 1.762843 8.337305 6
 6.460699 1.758031 8.218701 6
 5.694445 0.000000 5.694445 6
 4.823249 1.882537 6.705739 6
 5.300817 2.774872 8.075652 6
 4.910671 4.378747 9.289405 6
 5.232052 1.265720 6.497740 6
 5.353297 4.189147 9.542430 6
 5.444251 4.126675 9.570910 6
 5.430542 4.274333 9.704865 6
 6.330319 3.680072 10.010370 6
 5.549659 4.177384 9.727027 6
 4.683551 2.651215 7.334728 6
 5.994103 0.213297 6.207397 6
 5.372931 2.074364 7.447258 6
 5.278401 2.024982 7.303344 6
 5.148560 2.706254 7.854774 6
 4.499074 3.366894 7.865939 6
 5.566142 1.451249 7.017361 6
 5.198067 2.804463 8.002491 6
 5.373013 3.032829 8.405806 6
 5.312334 0.951196 6.263507 6
 5.261732 0.838786 6.100500 6
 6.433274 0.580817 7.014080 6
 4.693324 1.835843 6.529121 6
 5.174839 2.619743 7.794538 6
 5.540326 1.323904 6.864202 6
 5.729296 3.741757 9.471030 6
 6.346057 3.572299 9.918337 6
 6.456118 0.426628 6.882737 6
 4.836103 4.272596 9.108690 6
 4.970822 4.493345 9.464155 6
 5.103247 4.421588 9.524830 6
 5.274411 1.744259 7.018628 6
 5.348793 1.834921 7.183674 6
 5.279668 1.913752 7.193379 6
 6.035318 3.017223 9.052505 6
 5.921306 1.142314 7.063591 6
 6.006395 1.997754 8.004116 6
 4.767579 2.825063 7.592601 6
 5.843804 3.761670 9.605451 6
 6.375421 0.217663 6.593077 6
 6.264836 0.224408 6.489236 6
 4.871843 2.202187 7.073988 6
 6.424726 2.335515 8.760211 6
 6.012780 4.101611 10.114374 6
 4.312762 2.854862 7.167585 6
 4.375290 2.773214 7.148463 6
 5.736414 2.540970 8.277342 6
 4.522327 3.976162 8.498486 6
 4.433736 3.897782 8.331505 6
 4.591756 3.867225 8.458962 6
 6.209862 1.066738 7.276581 6
 5.525003 2.804276 8.329234 6
 5.843597 1.911012 7.754576 6
 5.949358 1.913687 7.863009 6
 5.449541 3.355074 8.804578 6
 6.125888 3.393376 9.519234 6
 6.590637 1.189853 7.780468 6
 6.201790 0.855314 7.057086 6
 4.637472 1.933982 6.571413 6
 5.740881 3.308495 9.049348 6
 5.795193 3.431835 9.226999 6
 5.922396 1.609534 7.531900 6
 4.827893 1.769695 6.597544 6
 4.735635 1.704167 6.439758 6
 6.303110 0.114363 6.417469 6
 6.317778 1.914775 8.232525 6
 6.104757 2.647847 8.752560 6
 5.889726 4.184255 10.073963 6
 6.527778 0.000000 6.527778 6
 6.498920 0.145414 6.644331 6
 6.405153 0.101550 6.506699 6
 4.823543 1.530825 6.354331 6
 4.682758 1.491060 6.173781 6
 4.799692 1.398689 6.198344 6
 6.013796 3.411810 9.425576 6
 5.718493 1.931503 7.649959 6
 4.960206 1.506675 6.466841 6
 5.491444 3.009066 8.500474 6
 6.388889 0.000000 6.388889 6
 5.781999 2.106490 7.888451 6
 4.508618 3.793003 8.301604 6
 5.449452 3.446203 8.895620 6
 4.540506 1.857687 6.398147 6
 4.623531 1.736114 6.359605 6
 5.627527 3.318141 8.945637 6
 6.096117 0.210944 6.307054 6
 6.511671 1.081840 7.593493 6
 6.417073 1.053950 7.471002 6
 5.755952 2.834142 8.590054 6
 6.322611 2.328206 8.650781 6
 6.273861 2.219225 8.493054 6
 5.277778 0.000000 5.277778 6
 5.285372 0.138369 5.423734 6
 4.844534 4.120267 8.964784 6
 4.540840 1.979222 6.520018 6
 4.410639 1.931589 6.342182 6
 4.746282 4.023415 8.769680 6
 4.615785 4.052131 8.667906 6
 4.648560 3.952608 8.601150 6
 4.770158 3.460246 8.230376 6
 4.695701 4.120321 8.816010 6
 5.845794 3.290335 9.136098 6
 5.897887 3.398452 9.296307 6
 4.444899 3.150003 7.594866 6
 4.908827 1.410845 6.319634 6
 6.119900 2.949749 9.069617 6
 4.751874 4.209885 8.961744 6
 5.544065 2.402545 7.946568 6
 5.833333 0.000000 5.833333 6
 4.829906 1.649870 6.479734 6
 4.694332 1.602949 6.297237 6
 5.195613 2.110418 7.305989 6
 5.169352 1.977927 7.147243 6
 6.626881 2.198417 8.825270 6
 4.936807 1.614838 6.551603 6
 6.152049 2.750640 8.902653 6
 6.176887 2.866034 9.042882 6
 5.509090 2.200744 7.709795 6
 6.251194 2.425773 8.676940 6
 5.213384 1.838588 7.051933 6
 4.326914 3.215930 7.542814 6
 4.256149 3.096748 7.352861 6
 5.231665 3.874136 9.105778 6
 5.332923 3.944551 9.277453 6
 5.120804 3.930712 9.051489 6
 5.560513 4.315344 9.875843 6
 5.440802 3.996083 9.436862 6
 5.425378 3.879509 9.304870 6
 5.329196 3.825469 9.154639 6
 5.781554 2.009484 7.791003 6
 4.838349 4.462823 9.301163 6
 4.453945 2.031813 6.485714 6
 5.633647 3.820791 9.454418 6
 5.519513 3.798273 9.317760 6
 5.626534 1.947606 7.574104 6
 5.584702 2.271896 7.856557 6
 5.665025 1.848221 7.513212 6
 5.242271 2.693950 7.936179 6
 5.662192 2.588951 8.251105 6
 6.315060 3.798978 10.114024 6
 6.268794 3.508210 9.776980 6
 5.389285 0.867283 6.256544 6
 4.872369 2.513663 7.385993 6
 6.263386 0.959293 7.222660 6
 5.467221 2.294885 7.762067 6
 5.763889 0.075243 5.839129 6
 4.867213 4.558381 9.425587 6
 4.810153 4.375240 9.185382 6
 6.210627 2.120456 8.331053 6
 6.257380 2.762722 9.020063 6
 6.287323 2.882153 9.169442 6
 5.986506 0.632032 6.618522 6
 5.410939 2.180963 7.591861 6
 6.348061 3.445958 9.794000 6
 6.240714 3.415223 9.655915 6
 5.306698 2.150501 7.457158 6
 5.825987 1.162622 6.988582 6
 5.419442 3.758591 9.178008 6
 4.629376 3.767317 8.396675 6
 5.950565 3.323470 9.274001 6
 4.562174 3.680274 8.242427 6
 6.116432 0.504141 6.620558 6
 5.955906 0.325406 6.281301 6
 5.925706 0.435554 6.361244 6
 4.633486 4.354214 8.987694 6
 4.655750 4.229373 8.885108 6
 4.732930 4.312341 9.045266 6
 5.899045 0.541603 6.440633 6
 6.025506 0.407118 6.432611 6
 6.009024 0.516635 6.525645 6
 5.792207 2.744799 8.536967 6
 6.063309 0.305677 6.368978 6
 4.499614 3.585040 8.084634 6
 4.608068 3.572247 8.180287 6
 4.670556 3.665241 8.335772 6
 5.744256 2.653518 8.397735 6
 6.372652 2.421640 8.794259 6
 6.207363 2.318223 8.525554 6
 5.713305 2.748901 8.462165 6
 4.723359 4.428094 9.151448 6
 4.779534 3.649229 8.428736 6
 4.589895 4.154187 8.744070 6
 4.710295 3.562259 8.272531 6
 6.221040 2.971697 9.192703 6
 4.747875 4.543130 9.290998 6
 1 2 3 
 4 5 6 
 7 8 9 
 10 11 12 
 13 14 15 
 14 16 15 
 17 10 12 
 18 19 20 
 21 22 23 
 24 25 26 
 27 28 29 
 30 31 32 
 33 7 34 
 35 36 37 
 38 37 36 
 24 39 25 
 20 19 40 
 41 42 43 
 44 41 43 
 45 46 47 
 48 47 46 
 27 29 49 
 50 51 52 
 53 54 55 
 56 55 54 
 57 51 50 
 58 59 60 
 61 62 63 
 64 63 62 
 65 58 60 
 21 66 67 
 68 69 70 
 71 72 73 
 74 75 50 
 76 77 37 
 78 79 80 
 81 80 79 
 82 83 69 
 84 85 18 
 86 71 73 
 87 88 89 
 37 77 90 
 91 92 93 
 94 93 92 
 95 94 96 
 97 98 99 
 99 98 100 
 101 102 103 
 104 105 106 
 107 108 109 
 12 110 111 
 7 9 34 
 112 113 114 
 115 113 112 
 110 3 111 
 116 117 118 
 104 119 105 
 89 88 120 
 44 121 122 
 96 94 123 
 124 125 126 
 127 126 125 
 128 129 130 
 131 130 129 
 68 70 132 
 13 52 51 
 133 113 134 
 84 135 85 
 136 137 138 
 40 19 39 
 139 118 140 
 141 142 143 
 144 18 85 
 145 146 88 
 87 145 88 
 147 143 142 
 148 136 138 
 107 149 108 
 21 150 22 
 151 152 153 
 21 67 150 
 82 69 154 
 155 156 157 
 158 159 160 
 161 26 25 
 57 50 75 
 65 31 58 
 162 58 31 
 163 164 23 
 21 23 164 
 16 43 42 
 151 153 114 
 30 32 165 
 166 95 143 
 167 168 169 
 134 113 170 
 68 171 69 
 24 172 39 
 173 174 175 
 81 25 39 
 84 176 177 
 101 103 178 
 179 34 9 
 180 181 182 
 183 184 185 
 186 182 181 
 56 54 187 
 45 188 46 
 189 190 191 
 192 184 183 
 193 189 191 
 84 18 194 
 195 196 189 
 197 198 199 
 200 201 202 
 96 143 95 
 203 204 135 
 128 205 6 
 35 206 207 
 208 207 206 
 203 135 209 
 210 211 212 
 40 212 211 
 213 214 73 
 22 199 215 
 216 80 217 
 81 217 80 
 218 219 220 
 33 122 7 
 221 222 223 
 211 224 20 
 144 19 18 
 225 127 125 
 218 220 226 
 197 227 198 
 118 117 140 
 228 46 188 
 17 12 111 
 229 230 231 
 232 230 229 
 155 157 92 
 167 132 70 
 27 174 173 
 225 233 127 
 53 55 234 
 235 201 200 
 86 1 236 
 237 238 239 
 146 239 238 
 24 232 212 
 240 34 241 
 54 242 187 
 243 244 245 
 246 175 174 
 40 39 172 
 107 247 248 
 3 249 111 
 135 250 209 
 251 209 250 
 81 39 252 
 253 148 138 
 139 184 192 
 237 254 176 
 115 170 113 
 255 157 156 
 253 202 201 
 256 257 258 
 208 206 259 
 221 260 222 
 261 77 262 
 263 264 112 
 115 112 264 
 222 265 223 
 133 134 266 
 221 267 260 
 74 268 75 
 139 269 118 
 40 211 20 
 12 11 270 
 271 272 46 
 146 273 88 
 274 270 11 
 167 70 178 
 101 178 70 
 275 97 276 
 195 277 278 
 84 279 135 
 237 176 280 
 146 281 273 
 282 283 284 
 285 286 287 
 33 288 289 
 290 283 291 
 275 291 283 
 161 25 79 
 81 79 25 
 292 234 55 
 293 294 281 
 295 23 296 
 282 297 283 
 195 278 284 
 235 245 244 
 84 298 176 
 229 231 103 
 102 229 103 
 141 143 299 
 128 130 205 
 256 300 257 
 17 5 301 
 131 49 130 
 302 189 196 
 253 303 148 
 302 148 303 
 304 305 203 
 306 305 304 
 307 60 59 
 16 42 15 
 107 308 247 
 116 118 309 
 310 43 311 
 44 312 121 
 295 313 308 
 314 169 168 
 315 316 317 
 32 31 318 
 27 173 28 
 263 319 320 
 107 248 321 
 322 323 200 
 324 325 326 
 158 327 159 
 290 328 329 
 330 329 328 
 139 331 332 
 61 333 334 
 35 207 335 
 295 336 23 
 221 187 242 
 275 297 97 
 337 215 199 
 324 338 325 
 302 62 148 
 339 244 243 
 340 333 341 
 61 63 341 
 33 289 342 
 163 343 109 
 96 344 143 
 198 345 199 
 94 92 157 
 293 281 238 
 295 346 313 
 347 348 349 
 167 178 168 
 65 318 31 
 120 265 350 
 213 333 340 
 261 160 159 
 351 352 250 
 261 353 77 
 22 150 199 
 354 287 67 
 197 67 287 
 166 355 356 
 148 62 136 
 62 61 136 
 48 46 272 
 216 357 80 
 21 358 66 
 310 311 106 
 124 359 360 
 180 182 174 
 61 341 333 
 354 67 66 
 210 212 232 
 361 149 362 
 107 109 343 
 337 199 345 
 363 364 360 
 139 192 269 
 278 313 346 
 285 287 365 
 322 332 331 
 366 75 268 
 166 143 367 
 368 20 224 
 286 227 287 
 339 362 149 
 165 369 370 
 371 372 373 
 16 311 43 
 322 138 332 
 82 374 375 
 376 375 374 
 377 41 378 
 379 245 200 
 380 381 382 
 324 382 381 
 38 383 37 
 76 37 383 
 322 200 202 
 384 153 152 
 193 247 313 
 308 313 247 
 22 296 23 
 135 204 85 
 208 259 385 
 61 334 136 
 251 250 352 
 207 386 335 
 235 200 245 
 44 43 312 
 366 331 140 
 82 387 83 
 107 343 308 
 295 308 336 
 388 389 390 
 391 392 393 
 394 328 291 
 377 42 41 
 395 396 397 
 398 223 265 
 221 242 267 
 163 109 399 
 218 105 119 
 8 7 400 
 351 250 188 
 151 114 113 
 94 157 123 
 137 332 138 
 401 309 11 
 251 356 355 
 246 174 182 
 402 106 105 
 363 360 359 
 264 403 170 
 163 23 336 
 404 405 71 
 286 406 227 
 379 200 323 
 407 105 226 
 218 226 105 
 391 408 392 
 222 350 265 
 255 156 409 
 35 37 90 
 33 410 122 
 411 412 413 
 139 332 184 
 414 36 335 
 412 415 413 
 361 378 342 
 360 416 125 
 125 416 225 
 417 349 348 
 418 419 382 
 21 164 358 
 366 140 117 
 102 420 210 
 80 357 421 
 229 102 210 
 379 422 243 
 161 257 233 
 210 423 211 
 391 211 423 
 237 280 424 
 425 288 426 
 240 426 288 
 4 6 205 
 115 264 170 
 394 291 427 
 144 305 217 
 407 266 428 
 101 429 102 
 101 70 83 
 69 83 70 
 430 422 377 
 243 422 430 
 121 400 122 
 228 279 177 
 48 259 431 
 414 335 432 
 433 427 276 
 228 188 250 
 361 362 378 
 255 409 434 
 435 156 436 
 437 14 438 
 439 382 419 
 16 437 311 
 97 99 276 
 120 88 440 
 161 258 257 
 120 350 89 
 441 191 190 
 379 243 245 
 162 442 58 
 116 58 442 
 377 378 362 
 418 382 326 
 195 189 277 
 195 284 283 
 24 443 232 
 213 73 72 
 310 312 43 
 32 369 165 
 444 259 206 
 210 232 229 
 445 99 446 
 240 372 426 
 371 426 372 
 133 447 113 
 151 113 447 
 228 250 279 
 5 448 301 
 371 164 399 
 163 399 164 
 76 383 449 
 450 451 257 
 127 257 451 
 366 268 331 
 231 230 364 
 147 367 143 
 452 370 369 
 453 454 455 
 302 196 456 
 290 291 328 
 24 212 172 
 74 50 323 
 379 323 50 
 324 326 382 
 380 51 381 
 57 381 51 
 275 283 297 
 166 367 355 
 116 442 117 
 100 446 99 
 33 34 288 
 240 288 34 
 392 457 393 
 33 342 410 
 162 458 459 
 161 233 26 
 16 14 437 
 186 440 88 
 162 459 442 
 104 106 311 
 155 92 388 
 176 254 460 
 461 350 260 
 222 260 350 
 368 224 424 
 391 424 224 
 444 90 77 
 395 415 160 
 35 90 206 
 462 341 63 
 339 243 430 
 290 463 283 
 195 283 463 
 428 266 464 
 158 160 415 
 195 463 196 
 48 431 47 
 371 373 164 
 450 257 300 
 465 466 272 
 322 331 467 
 377 15 42 
 407 428 468 
 469 468 428 
 316 470 317 
 11 309 471 
 139 140 331 
 180 174 472 
 473 262 449 
 474 475 476 
 275 427 291 
 477 478 479 
 3 2 249 
 208 480 207 
 4 448 5 
 137 184 332 
 481 75 458 
 48 272 385 
 86 236 71 
 404 71 236 
 133 266 226 
 407 226 266 
 310 482 312 
 121 312 482 
 7 122 400 
 124 360 125 
 155 388 390 
 293 393 457 
 384 178 103 
 137 334 184 
 185 184 334 
 237 424 483 
 368 424 280 
 407 468 105 
 402 105 468 
 391 224 211 
 197 150 67 
 391 393 424 
 263 112 359 
 363 359 112 
 366 458 75 
 144 217 252 
 81 252 217 
 484 474 476 
 30 485 31 
 76 449 262 
 433 276 99 
 486 455 454 
 271 46 487 
 91 411 92 
 322 467 323 
 363 114 153 
 315 317 348 
 488 489 428 
 380 438 14 
 213 72 333 
 185 333 72 
 271 490 272 
 465 272 490 
 100 317 446 
 100 491 317 
 462 63 492 
 64 493 63 
 314 168 447 
 494 281 294 
 127 451 126 
 251 355 209 
 203 209 355 
 197 287 227 
 104 311 437 
 495 496 301 
 401 301 496 
 497 285 365 
 274 269 405 
 192 405 269 
 497 365 498 
 255 434 499 
 488 500 501 
 186 181 440 
 502 503 504 
 473 396 262 
 216 217 505 
 502 506 503 
 278 277 313 
 127 233 257 
 78 80 421 
 316 484 470 
 466 507 508 
 78 509 79 
 121 510 400 
 440 181 511 
 147 355 367 
 465 507 466 
 185 334 333 
 512 499 434 
 116 59 58 
 76 262 77 
 162 31 485 
 84 177 279 
 366 117 459 
 30 338 485 
 225 26 233 
 447 168 152 
 82 154 374 
 513 374 154 
 514 347 349 
 477 515 516 
 347 315 348 
 71 405 183 
 465 239 145 
 193 277 189 
 203 355 304 
 147 304 355 
 261 262 396 
 517 219 518 
 218 518 219 
 13 51 14 
 17 111 519 
 473 397 396 
 477 482 520 
 465 490 239 
 17 519 5 
 465 145 507 
 502 499 506 
 512 506 499 
 146 145 239 
 133 226 220 
 179 241 34 
 237 239 254 
 39 19 252 
 27 472 174 
 180 521 181 
 522 181 521 
 523 326 325 
 124 319 359 
 155 436 156 
 161 79 258 
 130 49 524 
 439 518 525 
 44 122 410 
 256 526 527 
 225 443 26 
 528 529 93 
 461 207 480 
 477 520 515 
 392 387 375 
 146 238 281 
 528 93 530 
 94 530 93 
 461 386 207 
 413 415 531 
 518 119 525 
 186 88 273 
 435 409 156 
 71 183 72 
 185 72 183 
 82 375 387 
 87 507 145 
 65 60 28 
 29 28 60 
 376 294 457 
 173 369 318 
 477 516 478 
 158 532 327 
 533 327 532 
 477 479 510 
 164 373 358 
 395 531 415 
 528 534 529 
 481 535 338 
 513 370 374 
 232 443 230 
 302 456 62 
 180 472 521 
 435 536 409 
 144 85 204 
 197 199 150 
 537 170 403 
 354 365 287 
 469 489 516 
 538 539 47 
 45 47 539 
 481 338 540 
 324 540 338 
 30 165 541 
 271 460 254 
 35 335 36 
 477 510 482 
 481 542 75 
 57 75 542 
 104 437 525 
 40 172 212 
 444 431 259 
 213 340 214 
 228 177 487 
 302 190 189 
 462 214 340 
 376 457 375 
 543 83 387 
 494 273 281 
 444 206 90 
 376 374 544 
 225 230 443 
 292 129 234 
 128 234 129 
 38 36 545 
 8 400 510 
 395 160 396 
 425 289 288 
 537 501 500 
 513 541 165 
 546 432 335 
 228 487 46 
 255 123 157 
 263 320 264 
 378 41 410 
 363 153 364 
 29 524 49 
 176 460 177 
 272 466 385 
 425 547 108 
 109 108 547 
 30 325 338 
 261 396 160 
 186 273 182 
 494 182 273 
 364 230 416 
 444 353 431 
 208 508 480 
 255 499 123 
 314 220 219 
 237 483 238 
 361 108 149 
 231 364 548 
 64 456 549 
 17 301 10 
 401 10 301 
 256 527 300 
 414 545 36 
 92 411 388 
 121 482 510 
 384 168 178 
 208 385 466 
 44 410 41 
 68 550 171 
 495 301 448 
 173 318 28 
 144 252 19 
 274 11 471 
 377 422 15 
 469 428 489 
 134 464 266 
 538 431 353 
 256 509 526 
 198 551 349 
 514 349 551 
 528 530 356 
 166 356 530 
 78 526 509 
 96 123 499 
 263 359 319 
 196 549 456 
 435 552 536 
 107 321 149 
 445 476 475 
 513 165 370 
 469 516 515 
 133 220 447 
 32 318 369 
 533 539 327 
 538 327 539 
 553 434 409 
 135 279 250 
 401 496 554 
 401 11 10 
 24 26 443 
 522 555 556 
 217 305 505 
 94 95 530 
 84 194 298 
 384 103 548 
 293 238 483 
 378 410 342 
 444 77 353 
 360 364 416 
 282 284 557 
 307 554 496 
 91 93 529 
 453 455 504 
 48 385 259 
 68 558 550 
 523 550 558 
 379 52 422 
 417 345 349 
 198 349 345 
 404 236 1 
 79 509 258 
 193 313 277 
 488 428 464 
 484 476 470 
 267 559 560 
 278 557 284 
 68 561 558 
 363 112 114 
 131 472 49 
 538 353 159 
 144 204 305 
 513 550 541 
 27 49 472 
 248 562 244 
 517 169 219 
 314 219 169 
 481 458 535 
 68 132 561 
 45 563 188 
 354 498 365 
 538 159 327 
 261 159 353 
 522 521 555 
 486 564 455 
 439 438 382 
 380 382 438 
 401 554 309 
 565 89 350 
 339 149 321 
 330 493 329 
 225 416 230 
 91 529 532 
 210 420 423 
 543 423 420 
 275 276 427 
 502 344 499 
 96 499 344 
 30 541 325 
 486 566 564 
 413 388 411 
 162 535 458 
 317 470 446 
 445 446 470 
 13 15 422 
 406 514 551 
 462 340 341 
 523 541 550 
 543 408 423 
 391 423 408 
 116 309 554 
 461 480 350 
 565 350 480 
 322 202 138 
 546 559 432 
 517 518 419 
 97 297 567 
 282 567 297 
 368 280 298 
 120 440 265 
 398 265 440 
 361 342 289 
 538 47 431 
 117 442 459 
 337 568 569 
 570 571 572 
 517 132 169 
 167 169 132 
 8 510 479 
 22 215 296 
 573 296 215 
 439 525 438 
 437 438 525 
 253 138 202 
 574 567 575 
 137 136 334 
 364 153 548 
 314 447 220 
 546 335 386 
 253 201 303 
 441 303 201 
 57 542 381 
 324 381 540 
 338 535 485 
 158 415 412 
 74 323 467 
 45 539 563 
 64 549 329 
 13 422 52 
 546 560 559 
 310 520 482 
 439 419 518 
 218 119 518 
 231 548 103 
 574 98 567 
 402 520 106 
 310 106 520 
 406 551 227 
 198 227 551 
 64 62 456 
 361 289 108 
 425 108 289 
 267 560 260 
 306 505 305 
 248 244 321 
 292 555 129 
 131 129 555 
 176 298 280 
 65 28 318 
 445 470 476 
 543 429 83 
 101 83 429 
 384 548 153 
 494 576 182 
 239 490 254 
 246 182 576 
 574 577 98 
 100 98 577 
 3 110 1 
 404 1 110 
 203 305 204 
 366 459 458 
 502 504 299 
 141 299 504 
 523 325 541 
 379 50 52 
 578 579 566 
 580 566 579 
 553 409 536 
 292 556 555 
 271 254 490 
 235 244 562 
 192 183 405 
 216 579 357 
 417 568 345 
 452 544 370 
 374 370 544 
 330 492 493 
 109 547 399 
 371 399 547 
 131 521 472 
 246 576 581 
 495 582 524 
 413 389 388 
 118 471 309 
 290 549 463 
 196 463 549 
 452 175 581 