TITLE      =  "2D FE Unstructured grid data" 
VARIABLES = "X", "Y", "U", "Dom" 
ZONE T="P1", F=FEPOINT, N= 760 E= 1400  ET=TRIANGLE 
 0.000000 2.800000 2.800000 1
 0.173205 2.900000 3.073207 1
 0.000000 3.000000 3.000000 1
 0.173205 3.100000 3.273209 1
 0.000000 3.200000 3.200000 1
 0.173205 3.300000 3.473210 1
 0.000000 3.400000 3.400000 1
 0.173205 3.500000 3.673211 1
 0.000000 3.600000 3.600000 1
 0.173205 3.700000 3.873213 1
 0.000000 3.800000 3.800000 1
 0.173205 3.900000 4.073213 1
 0.000000 4.000000 4.000000 1
 0.173205 4.100000 4.273211 1
 0.000000 4.200000 4.200000 1
 0.173205 4.300000 4.473213 1
 0.000000 4.400000 4.400000 1
 0.173205 4.500000 4.673211 1
 0.000000 4.600000 4.600000 1
 0.173205 4.700000 4.873210 1
 0.000000 4.800000 4.800000 1
 0.173205 4.900000 5.073210 1
 0.000000 5.000000 5.000000 1
 0.000000 5.200000 5.200000 1
 0.173205 5.100000 5.273209 1
 0.173205 5.300000 5.473210 1
 0.000000 5.400000 5.400000 1
 0.173205 5.500000 5.673212 1
 0.000000 5.600000 5.600000 1
 0.173205 5.700000 5.873211 1
 0.000000 5.800000 5.800000 1
 0.173205 5.900000 6.073211 1
 0.000000 6.000000 6.000000 1
 0.173205 6.100000 6.273208 1
 0.000000 6.200000 6.200000 1
 0.173205 6.300000 6.473210 1
 0.000000 6.400000 6.400000 1
 0.173205 6.500000 6.673210 1
 0.000000 6.600000 6.600000 1
 0.173205 6.700000 6.873208 1
 0.000000 6.800000 6.800000 1
 0.173205 6.900000 7.073205 1
 0.000000 7.000000 7.000000 1
 0.173205 7.100000 7.273207 1
 0.000000 7.200000 7.200000 1
 0.173205 7.300000 7.473206 1
 0.000000 7.400000 7.400000 1
 0.173205 7.500000 7.673202 1
 0.000000 7.600000 7.600000 1
 0.173205 7.699999 7.873199 1
 0.000000 7.800000 7.800000 1
 0.173210 7.899996 8.073205 1
 0.000000 8.000000 8.000000 1
 0.173231 8.100002 8.273230 1
 0.000000 8.200000 8.200000 1
 0.173282 8.300057 8.473337 1
 0.000000 8.400000 8.400000 1
 0.173355 8.500252 8.673608 1
 0.000000 8.600000 8.600000 1
 0.173396 8.700693 8.874086 1
 0.000000 8.800000 8.800000 1
 0.173305 8.901406 9.074709 1
 0.000000 9.000000 9.000000 1
 0.173112 9.102262 9.275373 1
 0.000000 9.200000 9.200000 1
 0.173339 9.303297 9.476635 1
 0.000000 9.400000 9.400000 1
 0.175066 9.506494 9.681561 1
 0.000000 9.600000 9.600000 1
 0.164370 9.702746 9.867117 1
 0.000000 9.800000 9.800000 1
 0.087359 9.912414 9.999772 1
 0.000000 10.000000 10.000000 1
 0.200000 10.000000 10.200000 1
 0.295277 9.833226 10.128501 1
 0.400000 10.000000 10.400000 1
 0.491419 9.819784 10.311207 1
 0.600000 10.000000 10.600000 1
 0.696277 9.819970 10.516245 1
 0.800000 10.000000 10.800000 1
 0.898880 9.822006 10.720883 1
 1.000000 10.000000 11.000000 1
 1.099898 9.824569 10.924472 1
 1.200000 10.000000 11.200000 1
 1.300002 9.825985 11.125989 1
 1.400000 10.000000 11.400000 1
 1.499953 9.826576 11.326530 1
 1.600000 10.000000 11.600000 1
 1.699943 9.826763 11.526711 1
 1.800000 10.000000 11.800000 1
 1.899964 9.826800 11.726769 1
 2.000000 10.000000 12.000000 1
 2.099984 9.826799 11.926784 1
 2.200000 10.000000 12.200000 1
 2.299995 9.826796 12.126799 1
 2.400000 10.000000 12.400000 1
 2.499999 9.826795 12.326790 1
 2.600000 10.000000 12.600000 1
 2.700000 9.826795 12.526800 1
 2.800000 10.000000 12.800000 1
 2.900000 9.826795 12.726804 1
 3.000000 10.000000 13.000000 1
 3.100000 9.826795 12.926803 1
 3.200000 10.000000 13.200000 1
 3.300000 9.826795 13.126796 1
 3.400000 10.000000 13.400000 1
 3.500000 9.826795 13.326800 1
 3.600000 10.000000 13.600000 1
 3.700000 9.826795 13.526801 1
 3.800000 10.000000 13.800000 1
 3.900000 9.826795 13.726807 1
 4.000000 10.000000 14.000000 1
 4.100000 9.826795 13.926798 1
 4.200000 10.000000 14.200000 1
 4.300000 9.826795 14.126805 1
 4.400000 10.000000 14.400000 1
 0.149413 9.849668 9.999087 1
 0.346410 3.000000 3.346418 1
 0.346410 3.200000 3.546419 1
 0.346410 3.400000 3.746419 1
 0.346410 3.600000 3.946421 1
 0.346410 3.800000 4.146423 1
 0.346410 4.000000 4.346423 1
 0.346410 4.200000 4.546423 1
 0.346410 4.400000 4.746420 1
 0.346410 4.600000 4.946422 1
 0.346410 4.800000 5.146423 1
 0.346410 5.000000 5.346423 1
 0.346410 5.200000 5.546419 1
 0.346410 5.400000 5.746421 1
 0.346410 5.600000 5.946419 1
 0.346410 5.800000 6.146416 1
 0.346410 6.000000 6.346417 1
 0.346410 6.200000 6.546417 1
 0.346410 6.400000 6.746418 1
 0.346410 6.600000 6.946413 1
 0.346410 6.800000 7.146411 1
 0.346410 7.000000 7.346410 1
 0.346410 7.200000 7.546408 1
 0.346410 7.400000 7.746406 1
 0.346408 7.599998 7.946402 1
 0.346411 7.799990 8.146395 1
 0.346439 7.999973 8.346410 1
 0.346539 8.199990 8.546529 1
 0.346761 8.400186 8.746943 1
 0.347051 8.600819 8.947867 1
 0.347170 8.802126 9.149296 1
 0.346724 9.003945 9.350669 1
 0.345804 9.205498 9.551302 1
 0.346365 9.405966 9.752336 1
 0.366420 9.627176 9.993606 1
 0.590643 9.638189 10.228833 1
 0.797026 9.639455 10.436480 1
 1.000504 9.647519 10.648026 1
 1.200404 9.651418 10.851826 1
 1.400005 9.653032 11.053045 1
 1.599845 9.653549 11.253400 1
 1.799859 9.653640 11.453506 1
 1.999921 9.653622 11.653546 1
 2.199967 9.653599 11.853568 1
 2.399989 9.653590 12.053585 1
 2.599997 9.653589 12.253596 1
 2.799999 9.653589 12.453594 1
 3.000000 9.653590 12.653600 1
 3.200000 9.653590 12.853595 1
 3.400000 9.653590 13.053602 1
 3.600000 9.653590 13.253601 1
 3.800000 9.653590 13.453609 1
 4.000000 9.653590 13.653605 1
 4.200000 9.653590 13.853612 1
 0.519615 3.100000 3.619623 1
 0.519615 3.300000 3.819626 1
 0.519615 3.500000 4.019630 1
 0.519615 3.700000 4.219631 1
 0.519615 3.900000 4.419631 1
 0.519615 4.100000 4.619631 1
 0.519615 4.300000 4.819633 1
 0.519615 4.500000 5.019630 1
 0.519615 4.700000 5.219631 1
 0.519615 4.900000 5.419633 1
 0.519615 5.100000 5.619630 1
 0.519615 5.300000 5.819630 1
 0.519615 5.500000 6.019626 1
 0.519615 5.700000 6.219628 1
 0.519615 5.900000 6.419626 1
 0.519615 6.100000 6.619628 1
 0.519615 6.300000 6.819624 1
 0.519615 6.500000 7.019622 1
 0.519615 6.700000 7.219618 1
 0.519615 6.900000 7.419614 1
 0.519615 7.100000 7.619616 1
 0.519615 7.300002 7.819614 1
 0.519613 7.500002 8.019608 1
 0.519607 7.699993 8.219593 1
 0.519617 7.899950 8.419562 1
 0.519721 8.099868 8.619585 1
 0.520078 8.299863 8.819940 1
 0.520832 8.500332 9.021165 1
 0.521715 8.701867 9.223589 1
 0.522033 8.904896 9.426931 1
 0.520167 9.108484 9.628655 1
 0.516094 9.309842 9.825943 1
 0.502026 9.483924 9.985949 1
 0.691279 9.438541 10.129825 1
 0.905519 9.469888 10.375409 1
 1.102293 9.477044 10.579344 1
 1.300466 9.479819 10.780289 1
 1.499710 9.480616 10.980330 1
 1.699596 9.480661 11.180264 1
 1.899716 9.480534 11.380255 1
 2.099850 9.480433 11.580291 1
 2.299935 9.480390 11.780327 1
 2.499976 9.480380 11.980362 1
 2.699993 9.480382 12.180382 1
 2.899999 9.480384 12.380389 1
 3.100000 9.480385 12.580393 1
 3.300000 9.480385 12.780397 1
 3.500000 9.480385 12.980403 1
 3.700000 9.480385 13.180404 1
 3.900000 9.480385 13.380410 1
 4.100000 9.480385 13.580409 1
 0.692821 3.199999 3.892833 1
 0.692820 3.400000 4.092834 1
 0.692820 3.600000 4.292838 1
 0.692820 3.800000 4.492841 1
 0.692820 4.000000 4.692839 1
 0.692820 4.200000 4.892840 1
 0.692820 4.400000 5.092841 1
 0.692820 4.600000 5.292840 1
 0.692820 4.800000 5.492839 1
 0.692820 5.000000 5.692839 1
 0.692820 5.200000 5.892837 1
 0.692820 5.400000 6.092838 1
 0.692820 5.600000 6.292833 1
 0.692820 5.800000 6.492835 1
 0.692820 6.000000 6.692836 1
 0.692820 6.200000 6.892830 1
 0.692820 6.400000 7.092830 1
 0.692820 6.600000 7.292824 1
 0.692820 6.800000 7.492819 1
 0.692822 7.000001 7.692819 1
 0.692824 7.200005 7.892825 1
 0.692827 7.400013 8.092831 1
 0.692819 7.600022 8.292833 1
 0.692793 7.799987 8.492774 1
 0.692804 7.999825 8.692620 1
 0.693086 8.199495 8.892574 1
 0.694128 8.399289 9.093417 1
 0.696392 8.600256 9.296645 1
 0.698498 8.803503 9.501998 1
 0.699922 9.010504 9.710425 1
 0.692332 9.217192 9.909528 1
 0.837106 9.311172 10.148279 1
 1.006657 9.305138 10.311797 1
 1.201722 9.308072 10.509796 1
 1.399538 9.308581 10.708128 1
 1.599009 9.308180 10.907197 1
 1.799177 9.307693 11.106877 1
 1.999483 9.307365 11.306854 1
 2.199725 9.307206 11.506936 1
 2.399874 9.307160 11.707047 1
 2.599952 9.307162 11.907125 1
 2.799986 9.307173 12.107171 1
 2.999997 9.307178 12.307192 1
 3.200000 9.307179 12.507196 1
 3.400000 9.307179 12.707203 1
 3.600000 9.307179 12.907199 1
 3.800000 9.307179 13.107203 1
 4.000000 9.307179 13.307208 1
 0.692821 2.999996 3.692827 1
 4.200000 9.307179 13.507208 1
 0.866029 3.099989 3.966029 1
 0.866026 3.299998 4.166041 1
 0.866025 3.500000 4.366045 1
 0.866025 3.700000 4.566048 1
 0.866025 3.900000 4.766047 1
 0.866025 4.100000 4.966048 1
 0.866025 4.300000 5.166049 1
 0.866025 4.500000 5.366049 1
 0.866025 4.700000 5.566050 1
 0.866025 4.900000 5.766048 1
 0.866025 5.100000 5.966044 1
 0.866025 5.300000 6.166046 1
 0.866025 5.500000 6.366043 1
 0.866025 5.700000 6.566042 1
 0.866025 5.900000 6.766043 1
 0.866025 6.100000 6.966040 1
 0.866025 6.300000 7.166036 1
 0.866025 6.500000 7.366032 1
 0.866026 6.700000 7.566028 1
 0.866029 6.900002 7.766030 1
 0.866039 7.100008 7.966044 1
 0.866061 7.300032 8.166084 1
 0.866084 7.500082 8.366156 1
 0.866058 7.700128 8.566175 1
 0.865936 7.900033 8.765957 1
 0.865847 8.099525 8.965361 1
 0.866400 8.298420 9.164818 1
 0.868979 8.497291 9.366269 1
 0.875921 8.699565 9.575484 1
 0.877405 8.904689 9.782099 1
 0.891755 9.125154 10.016910 1
 1.103856 9.139504 10.243359 1
 1.299141 9.138507 10.437656 1
 1.497783 9.136682 10.634462 1
 1.697985 9.135341 10.833329 1
 1.898566 9.134526 11.033103 1
 2.099104 9.134078 11.233190 1
 2.299514 9.133916 11.433440 1
 2.499775 9.133906 11.633698 1
 2.699914 9.133938 11.833871 1
 2.899974 9.133962 12.033952 1
 3.099994 9.133972 12.233980 1
 3.299999 9.133974 12.433990 1
 3.500000 9.133975 12.633993 1
 3.700000 9.133975 12.834001 1
 3.900000 9.133975 13.034008 1
 4.100000 9.133975 13.234011 1
 4.300000 9.133975 13.434014 1
 1.039239 3.199976 4.239230 1
 1.039232 3.399995 4.439245 1
 1.039231 3.599999 4.639250 1
 1.039230 3.800000 4.839253 1
 1.039230 4.000000 5.039258 1
 1.039230 4.200000 5.239255 1
 1.039230 4.400000 5.439256 1
 1.039230 4.600000 5.639256 1
 1.039230 4.800000 5.839256 1
 1.039230 5.000000 6.039251 1
 1.039230 5.200000 6.239251 1
 1.039230 5.400000 6.439250 1
 1.039230 5.600000 6.639246 1
 1.039230 5.800000 6.839247 1
 1.039230 6.000000 7.039248 1
 1.039230 6.200000 7.239243 1
 1.039230 6.400000 7.439237 1
 1.039231 6.600001 7.639238 1
 1.039236 6.800003 7.839240 1
 1.039256 7.000013 8.039267 1
 1.039316 7.200050 8.239361 1
 1.039425 7.400152 8.439569 1
 1.039524 7.600350 8.639863 1
 1.039431 7.800554 8.839972 1
 1.038928 8.000355 9.039275 1
 1.038239 8.198991 9.237220 1
 1.038748 8.395752 9.434498 1
 1.043566 8.590389 9.633954 1
 1.072745 8.801568 9.874316 1
 1.028295 8.988511 10.016811 1
 1.197861 8.972159 10.170029 1
 1.395215 8.966660 10.361881 1
 1.595684 8.963572 10.559263 1
 1.796708 8.962122 10.758839 1
 1.997642 8.961090 10.958745 1
 2.198525 8.960625 11.159157 1
 2.399208 8.960560 11.359787 1
 2.599639 8.960635 11.560296 1
 2.799864 8.960711 11.760597 1
 2.999959 8.960751 11.960731 1
 3.199991 8.960765 12.160778 1
 3.399999 8.960769 12.360792 1
 3.600000 8.960770 12.560795 1
 3.800000 8.960770 12.760801 1
 4.000000 8.960770 12.960802 1
 4.200000 8.960770 13.160807 1
 1.212449 3.299958 4.512422 1
 1.212438 3.499990 4.712447 1
 1.212436 3.699999 4.912456 1
 1.212436 3.900000 5.112460 1
 1.212436 4.100000 5.312462 1
 1.212436 4.300000 5.512464 1
 1.212436 4.500000 5.712464 1
 1.212436 4.700000 5.912462 1
 1.212436 4.900000 6.112460 1
 1.212436 5.100000 6.312459 1
 1.212436 5.300000 6.512461 1
 1.212436 5.500000 6.712456 1
 1.212436 5.700000 6.912456 1
 1.212436 5.900000 7.112452 1
 1.212436 6.100000 7.312450 1
 1.212436 6.300000 7.512447 1
 1.212436 6.500001 7.712443 1
 1.212441 6.700006 7.912450 1
 1.212470 6.900021 8.112491 1
 1.212568 7.100065 8.312627 1
 1.212807 7.300199 8.513001 1
 1.213204 7.500542 8.713733 1
 1.213525 7.701184 8.914698 1
 1.213168 7.901902 9.115057 1
 1.211372 8.101635 9.313004 1
 1.208524 8.298485 9.507000 1
 1.207365 8.490920 9.698281 1
 1.198787 8.657331 9.856122 1
 1.289487 8.798874 10.088368 1
 1.491479 8.791008 10.282495 1
 1.693833 8.790569 10.484407 1
 1.894788 8.788484 10.683282 1
 2.096297 8.787249 10.883562 1
 2.297776 8.787024 11.084819 1
 2.498837 8.787168 11.286020 1
 2.699479 8.787353 11.486849 1
 2.899807 8.787477 11.687305 1
 3.099944 8.787536 11.887505 1
 3.299988 8.787558 12.087573 1
 3.499998 8.787563 12.287588 1
 3.700000 8.787564 12.487592 1
 3.900000 8.787564 12.687601 1
 4.100000 8.787564 12.887601 1
 1.212491 3.099857 4.312359 1
 1.385725 3.199780 4.585516 1
 1.385661 3.399933 4.785610 1
 1.385644 3.599984 4.985648 1
 1.385641 3.799997 5.185660 1
 1.385641 4.000000 5.385665 1
 1.385641 4.200000 5.585667 1
 1.385641 4.400000 5.785667 1
 1.385641 4.600000 5.985668 1
 1.385641 4.800000 6.185668 1
 1.385641 5.000000 6.385665 1
 1.385641 5.200000 6.585664 1
 1.385641 5.400000 6.785663 1
 1.385641 5.600000 6.985661 1
 1.385641 5.800000 7.185657 1
 1.385641 6.000000 7.385657 1
 1.385641 6.200000 7.585653 1
 1.385641 6.400003 7.785652 1
 1.385645 6.600013 7.985662 1
 1.385671 6.800036 8.185708 1
 1.385785 7.000087 8.385869 1
 1.386127 7.200213 8.586329 1
 1.386880 7.400575 8.787444 1
 1.388046 7.601508 8.989547 1
 1.388889 7.803306 9.192185 1
 1.387798 8.005581 9.393370 1
 1.382062 8.205519 9.587576 1
 1.373500 8.398758 9.772254 1
 1.381267 8.605203 9.986476 1
 1.592447 8.622175 10.214624 1
 1.789969 8.617206 10.407181 1
 1.991925 8.613585 10.605518 1
 2.194823 8.613128 10.807963 1
 2.396979 8.613378 11.010374 1
 2.598446 8.613739 11.212208 1
 2.799324 8.614036 11.413377 1
 2.999760 8.614221 11.614005 1
 3.199934 8.614312 11.814274 1
 3.399987 8.614347 12.014365 1
 3.599998 8.614357 12.214383 1
 1.558960 3.299690 4.858664 1
 1.558875 3.499902 5.058792 1
 1.558851 3.699975 5.258844 1
 1.558847 3.899996 5.458865 1
 1.558846 4.099999 5.658870 1
 1.558846 4.300000 5.858870 1
 1.558846 4.500000 6.058871 1
 1.558846 4.700000 6.258871 1
 1.558846 4.900000 6.458871 1
 1.558846 5.100000 6.658871 1
 1.558846 5.300000 6.858867 1
 1.558846 5.500000 7.058866 1
 1.558846 5.700000 7.258867 1
 1.558846 5.900000 7.458864 1
 1.558846 6.100001 7.658858 1
 1.558845 6.300006 7.858859 1
 1.558846 6.500023 8.058870 1
 1.558861 6.700066 8.258927 1
 1.558951 6.900141 8.459092 1
 1.559287 7.100255 8.659540 1
 1.560212 7.300487 8.860695 1
 1.562179 7.501207 9.063381 1
 1.565275 7.703406 9.268679 1
 1.567110 7.907842 9.474944 1
 1.565199 8.115053 9.680249 1
 1.546206 8.315174 9.861380 1
 1.515137 8.478414 9.993556 1
 1.681332 8.452022 10.133357 1
 1.883240 8.437768 10.321008 1
 2.089862 8.438546 10.528419 1
 2.293504 8.439113 10.732632 1
 2.496213 8.439630 10.935859 1
 2.698119 8.440176 11.138310 1
 2.899234 8.440637 11.339892 1
 3.099753 8.440932 11.540717 1
 3.299941 8.441079 11.741052 1
 3.499990 8.441135 11.941161 1
 1.732201 3.399587 5.131803 1
 1.732091 3.599865 5.331972 1
 1.732059 3.799964 5.532042 1
 1.732052 3.999993 5.732069 1
 1.732051 4.199999 5.932074 1
 1.732051 4.400000 6.132075 1
 1.732051 4.600000 6.332077 1
 1.732051 4.800000 6.532079 1
 1.732051 5.000000 6.732077 1
 1.732051 5.200000 6.932076 1
 1.732051 5.400000 7.132073 1
 1.732051 5.600000 7.332070 1
 1.732051 5.800000 7.532069 1
 1.732051 6.000001 7.732062 1
 1.732049 6.200009 7.932065 1
 1.732046 6.400037 8.132087 1
 1.732044 6.600110 8.332159 1
 1.732081 6.800243 8.532326 1
 1.732294 7.000411 8.732706 1
 1.733050 7.200540 8.933586 1
 1.735063 7.400663 9.135717 1
 1.739484 7.601478 9.340959 1
 1.748008 7.806480 9.554487 1
 1.749123 8.015097 9.764214 1
 1.759415 8.243134 10.002551 1
 1.984877 8.263465 10.248349 1
 2.188312 8.264641 10.452963 1
 2.392163 8.264791 10.656961 1
 2.595653 8.265425 10.861091 1
 2.798052 8.266356 11.064425 1
 2.999314 8.267144 11.266483 1
 3.199824 8.267626 11.467480 1
 3.399973 8.267846 11.667855 1
 3.600001 8.267923 11.867965 1
 1.905448 3.499480 5.404943 1
 1.905309 3.699824 5.605151 1
 1.905268 3.899951 5.805240 1
 1.905258 4.099989 6.005269 1
 1.905256 4.299998 6.205276 1
 1.905256 4.500000 6.405280 1
 1.905256 4.700000 6.605279 1
 1.905256 4.900000 6.805281 1
 1.905256 5.100000 7.005280 1
 1.905256 5.300000 7.205282 1
 1.905256 5.500000 7.405278 1
 1.905256 5.700000 7.605276 1
 1.905255 5.900002 7.805272 1
 1.905252 6.100012 8.005274 1
 1.905241 6.300050 8.205297 1
 1.905221 6.500155 8.405382 1
 1.905201 6.700376 8.605584 1
 1.905248 6.900702 8.805959 1
 1.905595 7.100961 9.006553 1
 1.906852 7.300796 9.207647 1
 1.910262 7.499844 9.410106 1
 1.918193 7.697887 9.616077 1
 1.950637 7.914224 9.864855 1
 1.905195 8.105431 10.010619 1
 2.081671 8.092043 10.173720 1
 2.285515 8.089336 10.374856 1
 2.491219 8.088972 10.580199 1
 2.695870 8.090572 10.786457 1
 2.898513 8.092359 10.990891 1
 3.099648 8.093670 11.193346 1
 3.299981 8.094345 11.394360 1
 3.500030 8.094620 11.594693 1
 3.700018 8.094711 11.794770 1
 2.078700 3.599380 5.678096 1
 2.078535 3.799781 5.878335 1
 2.078482 3.999936 6.078437 1
 2.078466 4.199985 6.278472 1
 2.078462 4.399997 6.478484 1
 2.078461 4.600000 6.678483 1
 2.078461 4.800000 6.878488 1
 2.078461 5.000000 7.078486 1
 2.078461 5.200000 7.278485 1
 2.078461 5.400000 7.478482 1
 2.078461 5.600000 7.678483 1
 2.078460 5.800002 7.878479 1
 2.078453 6.000012 8.078477 1
 2.078431 6.200055 8.278494 1
 2.078385 6.400184 8.478574 1
 2.078314 6.600483 8.678804 1
 2.078237 6.801019 8.879260 1
 2.078204 7.001676 9.079885 1
 2.078452 7.201922 9.280376 1
 2.079786 7.400774 9.480564 1
 2.083716 7.597122 9.680840 1
 2.078538 7.767920 9.846464 1
 2.174426 7.914770 10.089198 1
 2.383395 7.908900 10.292299 1
 2.592511 7.912008 10.504528 1
 2.797459 7.915435 10.712910 1
 2.999648 7.918645 10.918319 1
 3.200182 7.920352 11.120564 1
 3.400192 7.921098 11.321326 1
 3.600108 7.921392 11.521540 1
 3.800045 7.921496 11.721587 1
 2.251704 4.099922 6.351647 1
 2.251678 4.299981 6.551683 1
 2.251669 4.499996 6.751689 1
 2.251667 4.699999 6.951693 1
 2.251666 4.900000 7.151694 1
 2.251666 5.100000 7.351692 1
 2.251666 5.300000 7.551690 1
 2.251666 5.500000 7.751686 1
 2.251665 5.700000 7.951682 1
 2.251654 5.900009 8.151676 1
 2.251617 6.100050 8.351673 1
 2.251531 6.300183 8.551722 1
 2.251385 6.500513 8.751904 1
 2.251218 6.701183 8.952401 1
 2.251061 6.902292 9.153357 1
 2.250695 7.103502 9.354204 1
 2.250006 7.303535 9.553546 1
 2.250219 7.500392 9.750616 1
 2.266146 7.714409 9.980561 1
 2.489129 7.730742 10.219878 1
 2.696465 7.733715 10.430191 1
 2.900723 7.741913 10.642654 1
 3.101047 7.745561 10.846635 1
 3.300744 7.747126 11.047900 1
 3.500437 7.747838 11.248308 1
 3.700216 7.748157 11.448410 1
 3.900084 7.748278 11.648410 1
 2.424937 4.199905 6.624866 1
 2.424893 4.399971 6.824889 1
 2.424877 4.599992 7.024896 1
 2.424872 4.799998 7.224895 1
 2.424871 5.000000 7.424896 1
 2.424871 5.200000 7.624892 1
 2.424873 5.400000 7.824894 1
 2.424874 5.600000 8.024893 1
 2.424864 5.800005 8.224885 1
 2.424814 6.000040 8.424864 1
 2.424676 6.200160 8.624842 1
 2.424412 6.400469 8.824888 1
 2.424063 6.601118 9.025189 1
 2.423835 6.802324 9.226168 1
 2.423895 7.004465 9.428364 1
 2.422534 7.206843 9.629382 1
 2.418560 7.406425 9.824994 1
 2.403279 7.577728 9.981013 1
 2.592106 7.533823 10.125942 1
 2.806262 7.564362 10.370638 1
 3.003457 7.570261 10.573737 1
 3.202073 7.572492 10.774592 1
 3.401317 7.573784 10.975134 1
 3.600752 7.574581 11.175366 1
 3.800338 7.574939 11.375318 1
 2.598183 4.299863 6.898069 1
 2.598115 4.499947 7.098087 1
 2.598088 4.699982 7.298095 1
 2.598079 4.899995 7.498097 1
 2.598078 5.099999 7.698102 1
 2.598082 5.300001 7.898104 1
 2.598092 5.500003 8.098113 1
 2.598095 5.700013 8.298122 1
 2.598049 5.900046 8.498106 1
 2.597872 6.100151 8.698032 1
 2.597476 6.300423 8.897910 1
 2.596818 6.500985 9.097810 1
 2.596102 6.701903 9.298014 1
 2.596188 6.903456 9.499655 1
 2.598819 7.108148 9.706979 1
 2.593208 7.313585 9.906808 1
 2.737675 7.405842 10.143533 1
 2.907501 7.396818 10.304337 1
 3.104120 7.397239 10.501387 1
 3.303066 7.398692 10.701789 1
 3.502099 7.400577 10.902714 1
 3.701054 7.401469 11.102567 1
 2.771452 4.399749 7.171226 1
 2.771350 4.599888 7.371264 1
 2.771303 4.799959 7.571287 1
 2.771289 4.999989 7.771302 1
 2.771296 5.200000 7.971319 1
 2.771325 5.400011 8.171357 1
 2.771370 5.600039 8.371428 1
 2.771375 5.800104 8.571496 1
 2.771208 6.000234 8.771456 1
 2.770708 6.200493 8.971215 1
 2.769780 6.401011 9.170803 1
 2.768332 6.601799 9.370142 1
 2.766730 6.802329 9.569070 1
 2.767443 7.001482 9.768939 1
 2.789770 7.217824 10.007608 1
 3.004847 7.222243 10.227109 1
 3.205392 7.220417 10.425837 1
 3.405137 7.225986 10.631155 1
 2.771655 4.199502 6.971179 1
 2.945043 4.299105 7.244173 1
 2.944766 4.499521 7.444313 1
 2.944603 4.699786 7.644414 1
 2.944527 4.899924 7.844476 1
 2.944517 5.099982 8.044520 1
 2.944571 5.300014 8.244608 1
 2.944699 5.500071 8.444791 1
 2.944854 5.700213 8.645084 1
 2.944842 5.900488 8.845346 1
 2.944321 6.100876 9.045211 1
 2.943111 6.301359 9.244486 1
 2.941442 6.502273 9.443728 1
 2.938346 6.703360 9.641721 1
 2.933628 6.902309 9.835950 1
 2.919777 7.074007 9.993804 1
 3.103961 7.025118 10.129095 1
 3.312979 7.051863 10.364863 1
 3.506199 7.055682 10.561907 1
 3.118584 4.398415 7.517024 1
 3.118154 4.599186 7.717366 1
 3.117883 4.799658 7.917569 1
 3.117774 4.999887 8.117689 1
 3.117818 5.199984 8.317822 1
 3.118045 5.400070 8.518135 1
 3.118476 5.600294 8.718795 1
 3.118910 5.800822 8.919753 1
 3.118761 6.001706 9.120483 1
 3.117218 6.202582 9.319811 1
 3.114595 6.402964 9.517579 1
 3.113686 6.605107 9.718810 1
 3.105796 6.807573 9.913387 1
 3.246566 6.896933 10.143517 1
 3.411945 6.887214 10.299183 1
 3.603405 6.885714 10.489143 1
 3.292369 4.497565 7.789958 1
 3.291625 4.698853 7.990505 1
 3.291190 4.899559 8.190776 1
 3.291081 5.099869 8.390978 1
 3.291326 5.300003 8.591357 1
 3.292045 5.500215 8.792286 1
 3.293254 5.700898 8.994178 1
 3.294283 5.902485 9.196792 1
 3.293627 6.104989 9.398638 1
 3.288837 6.306361 9.595219 1
 3.282647 6.503179 9.785848 1
 3.298705 6.713931 10.012654 1
 3.504291 6.721057 10.225374 1
 3.466382 4.596951 8.063365 1
 3.465122 4.798721 8.263874 1
 3.464505 4.999568 8.464107 1
 3.464505 5.199877 8.664411 1
 3.465260 5.399986 8.865273 1
 3.467137 5.600390 9.067553 1
 3.470250 5.802162 9.272437 1
 3.472327 6.006245 9.478599 1
 3.471079 6.213562 9.684667 1
 3.453721 6.414768 9.868508 1
 3.425761 6.579841 10.005625 1
 3.588941 6.549791 10.138762 1
 3.638500 4.898977 8.537506 1
 3.637753 5.099737 8.737515 1
 3.638042 5.299843 8.937913 1
 3.639778 5.499630 9.139438 1
 3.644010 5.699929 9.343964 1
 3.652457 5.904323 9.556805 1
 3.653785 6.112446 9.766257 1
 3.664689 6.340184 10.004899 1
 3.811523 4.999689 8.811237 1
 3.810730 5.200062 9.010820 1
 3.811397 5.399538 9.210962 1
 3.814403 5.598020 9.412449 1
 3.822016 5.795403 9.617449 1
 3.854137 6.010942 9.865107 1
 3.809010 6.201818 10.010858 1
 3.888225 6.359203 10.247458 1
 3.984338 6.187819 10.172183 1
 3.983922 5.100821 9.084767 1
 3.982996 5.300550 9.283568 1
 3.983646 5.498712 9.482387 1
 3.987065 5.694353 9.681447 1
 3.981576 5.864599 9.846206 1
 3.986436 4.900120 8.886582 1
 4.076795 6.010706 10.087530 1
 4.158014 5.002370 9.160403 1
 1 2 3 
 3 4 5 
 5 6 7 
 7 8 9 
 9 10 11 
 11 12 13 
 13 14 15 
 15 16 17 
 17 18 19 
 19 20 21 
 21 22 23 
 24 23 25 
 26 27 24 
 28 29 27 
 30 31 29 
 32 33 31 
 34 35 33 
 36 37 35 
 38 39 37 
 40 41 39 
 42 43 41 
 44 45 43 
 46 47 45 
 48 49 47 
 50 51 49 
 52 53 51 
 54 55 53 
 56 57 55 
 58 59 57 
 60 61 59 
 62 63 61 
 64 65 63 
 66 67 65 
 68 69 67 
 70 71 69 
 71 72 73 
 72 74 73 
 74 75 76 
 76 77 78 
 78 79 80 
 80 81 82 
 82 83 84 
 84 85 86 
 86 87 88 
 88 89 90 
 90 91 92 
 92 93 94 
 94 95 96 
 96 97 98 
 98 99 100 
 100 101 102 
 102 103 104 
 104 105 106 
 106 107 108 
 108 109 110 
 110 111 112 
 112 113 114 
 114 115 116 
 3 2 4 
 5 4 6 
 7 6 8 
 9 8 10 
 11 10 12 
 13 12 14 
 15 14 16 
 17 16 18 
 19 18 20 
 21 20 22 
 25 23 22 
 25 26 24 
 26 28 27 
 28 30 29 
 30 32 31 
 32 34 33 
 34 36 35 
 36 38 37 
 38 40 39 
 40 42 41 
 42 44 43 
 44 46 45 
 46 48 47 
 48 50 49 
 50 52 51 
 52 54 53 
 54 56 55 
 56 58 57 
 58 60 59 
 60 62 61 
 62 64 63 
 64 66 65 
 66 68 67 
 68 70 69 
 117 71 70 
 72 71 117 
 74 72 117 
 75 77 76 
 74 117 75 
 77 79 78 
 79 81 80 
 81 83 82 
 83 85 84 
 85 87 86 
 87 89 88 
 89 91 90 
 91 93 92 
 93 95 94 
 95 97 96 
 97 99 98 
 99 101 100 
 101 103 102 
 103 105 104 
 105 107 106 
 107 109 108 
 109 111 110 
 111 113 112 
 113 115 114 
 118 4 2 
 119 6 4 
 120 8 6 
 121 10 8 
 10 122 12 
 12 123 14 
 14 124 16 
 16 125 18 
 18 126 20 
 20 127 22 
 25 22 128 
 26 25 129 
 28 26 130 
 30 28 131 
 32 30 132 
 34 32 133 
 36 34 134 
 38 36 135 
 40 38 136 
 42 40 137 
 44 42 138 
 46 44 139 
 48 46 140 
 50 48 141 
 52 50 142 
 54 52 143 
 56 54 144 
 58 56 145 
 60 58 146 
 62 60 147 
 64 62 148 
 66 64 149 
 68 66 150 
 70 68 151 
 70 75 117 
 151 77 75 
 77 152 79 
 79 153 81 
 81 154 83 
 83 155 85 
 85 156 87 
 157 89 87 
 89 158 91 
 91 159 93 
 93 160 95 
 95 161 97 
 97 162 99 
 99 163 101 
 101 164 103 
 103 165 105 
 105 166 107 
 107 167 109 
 109 168 111 
 111 169 113 
 113 170 115 
 118 119 4 
 119 120 6 
 120 121 8 
 10 121 122 
 12 122 123 
 14 123 124 
 16 124 125 
 18 125 126 
 20 126 127 
 128 22 127 
 129 25 128 
 130 26 129 
 131 28 130 
 132 30 131 
 133 32 132 
 134 34 133 
 135 36 134 
 136 38 135 
 137 40 136 
 138 42 137 
 139 44 138 
 140 46 139 
 141 48 140 
 142 50 141 
 143 52 142 
 144 54 143 
 145 56 144 
 146 58 145 
 147 60 146 
 148 62 147 
 149 64 148 
 150 66 149 
 151 68 150 
 70 151 75 
 152 77 151 
 152 153 79 
 153 154 81 
 154 155 83 
 155 156 85 
 156 157 87 
 158 89 157 
 158 159 91 
 159 160 93 
 160 161 95 
 161 162 97 
 162 163 99 
 163 164 101 
 164 165 103 
 165 166 105 
 166 167 107 
 167 168 109 
 168 169 111 
 169 170 113 
 118 171 119 
 119 172 120 
 120 173 121 
 121 174 122 
 123 122 175 
 124 123 176 
 125 124 177 
 126 125 178 
 127 126 179 
 180 128 127 
 129 128 181 
 130 129 182 
 131 130 183 
 132 131 184 
 133 132 185 
 134 133 186 
 135 134 187 
 136 135 188 
 137 136 189 
 138 137 190 
 139 138 191 
 140 139 192 
 141 140 193 
 142 141 194 
 142 195 143 
 144 143 196 
 145 144 197 
 146 145 198 
 147 146 199 
 148 147 200 
 149 148 201 
 202 150 149 
 151 150 203 
 151 203 152 
 152 204 153 
 153 205 154 
 154 206 155 
 155 207 156 
 156 208 157 
 157 209 158 
 158 210 159 
 211 160 159 
 160 212 161 
 161 213 162 
 162 214 163 
 163 215 164 
 164 216 165 
 165 217 166 
 166 218 167 
 167 219 168 
 168 220 169 
 169 221 170 
 119 171 172 
 120 172 173 
 121 173 174 
 175 122 174 
 176 123 175 
 177 124 176 
 178 125 177 
 179 126 178 
 179 180 127 
 181 128 180 
 182 129 181 
 183 130 182 
 184 131 183 
 185 132 184 
 186 133 185 
 187 134 186 
 188 135 187 
 189 136 188 
 190 137 189 
 191 138 190 
 192 139 191 
 193 140 192 
 194 141 193 
 142 194 195 
 196 143 195 
 197 144 196 
 198 145 197 
 199 146 198 
 200 147 199 
 201 148 200 
 201 202 149 
 203 150 202 
 152 203 204 
 204 205 153 
 205 206 154 
 206 207 155 
 207 208 156 
 208 209 157 
 209 210 158 
 210 211 159 
 212 160 211 
 212 213 161 
 213 214 162 
 214 215 163 
 215 216 164 
 216 217 165 
 217 218 166 
 218 219 167 
 219 220 168 
 220 221 169 
 172 171 222 
 173 172 223 
 174 173 224 
 175 174 225 
 226 176 175 
 227 177 176 
 228 178 177 
 229 179 178 
 180 179 230 
 181 180 231 
 182 181 232 
 183 182 233 
 184 183 234 
 185 184 235 
 186 185 236 
 187 186 237 
 188 187 238 
 189 188 239 
 190 189 240 
 191 190 241 
 192 191 242 
 192 243 193 
 194 193 244 
 195 194 245 
 196 195 246 
 197 196 247 
 198 197 248 
 199 198 249 
 200 199 250 
 201 200 251 
 202 201 252 
 204 203 202 
 204 253 205 
 205 254 206 
 255 207 206 
 207 256 208 
 208 257 209 
 209 258 210 
 259 211 210 
 211 260 212 
 212 261 213 
 262 214 213 
 214 263 215 
 264 216 215 
 216 265 217 
 217 266 218 
 218 267 219 
 219 268 220 
 220 269 221 
 222 171 270 
 223 172 222 
 224 173 223 
 225 174 224 
 225 226 175 
 226 227 176 
 227 228 177 
 228 229 178 
 230 179 229 
 231 180 230 
 232 181 231 
 233 182 232 
 234 183 233 
 235 184 234 
 236 185 235 
 237 186 236 
 238 187 237 
 239 188 238 
 240 189 239 
 241 190 240 
 242 191 241 
 192 242 243 
 244 193 243 
 245 194 244 
 246 195 245 
 247 196 246 
 248 197 247 
 249 198 248 
 250 199 249 
 251 200 250 
 252 201 251 
 204 202 252 
 253 254 205 
 204 252 253 
 254 255 206 
 256 207 255 
 256 257 208 
 257 258 209 
 258 259 210 
 260 211 259 
 260 261 212 
 261 262 213 
 263 214 262 
 263 264 215 
 265 216 264 
 265 266 217 
 266 267 218 
 267 268 219 
 268 269 220 
 269 271 221 
 272 222 270 
 273 223 222 
 274 224 223 
 275 225 224 
 226 225 276 
 227 226 277 
 228 227 278 
 229 228 279 
 230 229 280 
 231 230 281 
 232 231 282 
 233 232 283 
 234 233 284 
 235 234 285 
 236 235 286 
 237 236 287 
 237 288 238 
 239 238 289 
 239 290 240 
 240 291 241 
 292 242 241 
 243 242 293 
 243 294 244 
 245 244 295 
 246 245 296 
 247 246 297 
 248 247 298 
 248 299 249 
 249 300 250 
 251 250 301 
 252 251 302 
 302 254 253 
 252 302 253 
 254 303 255 
 304 256 255 
 305 257 256 
 257 306 258 
 258 307 259 
 259 308 260 
 260 309 261 
 310 262 261 
 262 311 263 
 263 312 264 
 313 265 264 
 314 266 265 
 266 315 267 
 316 268 267 
 268 317 269 
 269 318 271 
 272 273 222 
 273 274 223 
 274 275 224 
 276 225 275 
 277 226 276 
 278 227 277 
 279 228 278 
 280 229 279 
 281 230 280 
 282 231 281 
 283 232 282 
 284 233 283 
 285 234 284 
 286 235 285 
 287 236 286 
 237 287 288 
 289 238 288 
 239 289 290 
 240 290 291 
 291 292 241 
 293 242 292 
 243 293 294 
 295 244 294 
 296 245 295 
 297 246 296 
 298 247 297 
 248 298 299 
 249 299 300 
 301 250 300 
 302 251 301 
 303 254 302 
 303 304 255 
 305 256 304 
 306 257 305 
 306 307 258 
 307 308 259 
 308 309 260 
 309 310 261 
 311 262 310 
 311 312 263 
 312 313 264 
 314 265 313 
 315 266 314 
 315 316 267 
 317 268 316 