TITLE      =  "2D FE Unstructured grid data" 
VARIABLES = "X", "Y", "U", "Dom" 
ZONE T="P1", F=FEPOINT, N= 1416 E= 2677  ET=TRIANGLE 
 4.197526 1.870366 6.067843 1
 4.205878 1.765920 5.971750 1
 4.353964 1.802044 6.155960 1
 4.266956 1.957000 6.223903 1
 5.021739 1.179394 6.201099 1
 4.893626 1.277357 6.170945 1
 4.907285 1.106014 6.013264 1
 4.807293 1.166631 5.973888 1
 4.508610 1.716591 6.225153 1
 4.403931 1.670555 6.074443 1
 4.564542 1.598689 6.163183 1
 2.778845 2.835404 5.614221 1
 2.722581 2.737618 5.460170 1
 2.902174 2.798072 5.700213 1
 0.396185 2.183249 2.579434 1
 0.485793 2.257014 2.742807 1
 0.408222 2.362005 2.770229 1
 1.124692 2.502292 3.626982 1
 1.228799 2.671952 3.900748 1
 1.078740 2.622919 3.701660 1
 4.428215 1.553005 5.981177 1
 5.530592 1.588824 7.119376 1
 5.418162 1.689044 7.107160 1
 5.438151 1.531744 6.969851 1
 5.320665 1.604995 6.925616 1
 1.260920 2.524205 3.785123 1
 2.799273 2.657090 5.456333 1
 0.307372 2.242768 2.550140 1
 1.891838 1.660905 3.552725 1
 1.812134 1.749249 3.561366 1
 1.768777 1.588196 3.356958 1
 1.715435 1.715435 3.430855 1
 5.530718 0.481856 6.012557 1
 5.695170 0.474101 6.169253 1
 5.646289 0.628994 6.275263 1
 1.754323 2.040810 3.795118 1
 1.758451 2.202305 3.960742 1
 1.616540 2.144050 3.760579 1
 2.224255 0.306330 2.530583 1
 2.388637 0.301507 2.690139 1
 2.347324 0.430043 2.777360 1
 0.322056 2.511587 2.833644 1
 0.277052 2.371028 2.648082 1
 3.777970 3.146677 6.924603 1
 3.652420 3.199282 6.851659 1
 3.661256 3.088212 6.749427 1
 3.743002 3.263467 7.006427 1
 3.813725 3.367210 7.180897 1
 3.647573 3.329685 6.977218 1
 2.583424 2.501775 5.085169 1
 2.701661 2.377132 5.078762 1
 2.695099 2.498819 5.193889 1
 1.941770 2.558034 4.499791 1
 1.986268 2.386796 4.373045 1
 2.062971 2.489299 4.552249 1
 0.454521 2.808389 3.262911 1
 0.571388 2.861906 3.433295 1
 0.452134 2.950124 3.402261 1
 5.069196 0.635702 5.704881 1
 4.961960 0.559769 5.521710 1
 5.133544 0.478251 5.611780 1
 3.475663 0.888661 4.364308 1
 3.630861 0.810948 4.441792 1
 3.620797 0.962889 4.583666 1
 2.234407 0.657481 2.891877 1
 2.120073 0.575014 2.695081 1
 2.240137 0.511258 2.751388 1
 2.746652 3.966335 6.712988 1
 2.786584 3.867271 6.653853 1
 2.905543 3.942552 6.848092 1
 5.163724 1.126447 6.290137 1
 5.045081 1.009605 6.054656 1
 4.309810 1.458320 5.768088 1
 4.284656 1.344871 5.629493 1
 4.423867 1.436994 5.860822 1
 3.035245 2.932065 5.967274 1
 2.925088 2.947470 5.872524 1
 3.850509 0.260440 4.110941 1
 3.979503 0.179251 4.158751 1
 4.005759 0.298898 4.304655 1
 1.127248 1.726203 2.853446 1
 1.287513 1.779542 3.067048 1
 1.172185 1.879920 3.052099 1
 3.526508 0.747543 4.274037 1
 1.512000 3.028704 4.540699 1
 1.638329 2.981352 4.619673 1
 1.652687 3.096948 4.749633 1
 2.646301 0.922937 3.569223 1
 2.670109 0.789847 3.459943 1
 2.774578 0.915790 3.690351 1
 1.198950 0.801339 2.000284 1
 1.130480 0.928674 2.059149 1
 1.047596 0.816552 1.864143 1
 2.809502 0.795452 3.604940 1
 5.292080 1.380322 6.672360 1
 5.350010 1.474343 6.824311 1
 5.214271 1.518538 6.732762 1
 2.287620 1.524415 3.812011 1
 2.254541 1.369898 3.624418 1
 2.361500 1.418024 3.779501 1
 2.571431 3.205691 5.777099 1
 2.535318 3.365102 5.900403 1
 2.434222 3.215888 5.650092 1
 2.399718 3.322978 5.722681 1
 1.860394 2.484539 4.344919 1
 5.131914 0.869455 6.001345 1
 4.979466 0.893651 5.873090 1
 5.051641 0.767929 5.819545 1
 5.167317 1.389628 6.556903 1
 3.458855 4.122495 7.581347 1
 3.606796 4.177765 7.784557 1
 3.483129 4.255417 7.738547 1
 3.598774 4.337320 7.936098 1
 0.790780 1.521364 2.312139 1
 0.866223 1.686136 2.552355 1
 0.720848 1.668843 2.389689 1
 2.169859 1.495364 3.665201 1
 3.339667 0.912487 4.252137 1
 3.270177 0.973470 4.243627 1
 3.207373 0.855838 4.063194 1
 2.810024 0.456545 3.266563 1
 2.953604 0.456908 3.410506 1
 2.865226 0.576531 3.441748 1
 2.902658 1.497932 4.400558 1
 2.858719 1.367423 4.226114 1
 3.032295 1.365025 4.397292 1
 2.344383 2.780520 5.124885 1
 2.410020 2.636260 5.046257 1
 2.463959 2.742223 5.206159 1
 2.741634 3.009562 5.751171 1
 2.625647 3.073562 5.699183 1
 2.667062 2.893990 5.561026 1
 3.445907 2.659313 6.105175 1
 3.518409 2.790100 6.308462 1
 3.368222 2.742452 6.110629 1
 3.029496 1.489282 4.518743 1
 1.616217 1.525900 3.142106 1
 1.625544 1.659426 3.284959 1
 2.260671 2.687577 4.948229 1
 0.000000 3.611111 3.611111 1
 0.000000 3.472222 3.472222 1
 0.145812 3.516792 3.662606 1
 3.472222 0.000000 3.472222 1
 3.611111 0.000000 3.611111 1
 3.516792 0.145812 3.662603 1
 2.972581 3.152143 6.124690 1
 3.051320 3.237915 6.289203 1
 2.891829 3.294670 6.186475 1
 1.626288 2.311020 3.937298 1
 1.334896 0.555154 1.890045 1
 1.426591 0.410512 1.837099 1
 1.466554 0.565998 2.032548 1
 3.641623 0.107255 3.748878 1
 2.913982 3.504823 6.418785 1
 3.083112 3.536109 6.619198 1
 2.906021 3.610849 6.516856 1
 2.991431 3.677116 6.668532 1
 4.264837 0.506349 4.771177 1
 4.212965 0.369220 4.582175 1
 4.362883 0.430394 4.793266 1
 4.346334 0.298179 4.644503 1
 3.083775 2.826700 5.910437 1
 2.770490 3.248269 6.018735 1
 2.759542 3.399570 6.159090 1
 1.919936 1.270345 3.190267 1
 1.755492 1.254920 3.010399 1
 1.871586 1.127154 2.998729 1
 1.739587 1.082100 2.821678 1
 2.271795 0.209714 2.481508 1
 3.663119 3.911580 7.574680 1
 3.826711 3.869400 7.696088 1
 3.770090 3.992099 7.762175 1
 0.215148 2.456833 2.671983 1
 4.131754 0.207418 4.339166 1
 1.527778 0.000000 1.527778 1
 1.666667 0.000000 1.666667 1
 1.589848 0.164068 1.753915 1
 0.000000 1.666667 1.666667 1
 0.000000 1.527778 1.527778 1
 0.166367 1.576067 1.742433 1
 0.929934 2.639890 3.569825 1
 0.910989 2.774923 3.685915 1
 0.801785 2.672930 3.474715 1
 3.350452 0.817033 4.167471 1
 1.774427 3.040984 4.815403 1
 1.793190 3.163004 4.956189 1
 2.529397 2.962426 5.491800 1
 0.794699 2.807750 3.602451 1
 2.339659 0.578731 2.918380 1
 5.380229 0.370990 5.751205 1
 5.504284 0.305714 5.809986 1
 3.368343 3.309905 6.678214 1
 3.518182 3.389859 6.908005 1
 3.370279 3.428877 6.799129 1
 4.436863 1.321819 5.758646 1
 1.946766 2.013768 3.960514 1
 1.849528 1.959829 3.809339 1
 1.990244 1.885894 3.876115 1
 3.451608 3.228068 6.679637 1
 1.305229 0.389658 1.694883 1
 0.571555 2.580719 3.152275 1
 0.703462 2.592797 3.296260 1
 0.657172 2.726656 3.383829 1
 0.985853 1.824786 2.810632 1
 1.035779 1.969255 3.005030 1
 4.995296 0.236381 5.231671 1
 5.156919 0.196422 5.353334 1
 5.078186 0.341365 5.419539 1
 5.224209 0.344523 5.568720 1
 0.868734 0.211318 1.080052 1
 0.964521 0.286455 1.250973 1
 0.812346 0.369957 1.182302 1
 1.582600 0.637034 2.219629 1
 1.586031 0.794422 2.380446 1
 1.444892 0.702479 2.147366 1
 1.455321 0.867097 2.322412 1
 2.857611 3.172049 6.029629 1
 1.700395 1.421035 3.121417 1
 1.848912 1.412530 3.261426 1
 4.296433 1.636482 5.932868 1
 3.828493 1.142571 4.971036 1
 3.683397 1.093184 4.776556 1
 3.767156 0.999493 4.766625 1
 1.805556 0.000000 1.805556 1
 1.903467 0.135013 2.038480 1
 1.734081 0.126238 1.860319 1
 0.000000 1.805556 1.805556 1
 0.127251 1.739763 1.867014 1
 0.133506 1.909086 2.042592 1
 4.504739 0.855871 5.360587 1
 4.639683 0.942703 5.582360 1
 4.530584 1.020250 5.550810 1
 4.992430 0.434300 5.426715 1
 2.556905 2.379816 4.936691 1
 1.218172 1.198164 2.416330 1
 1.350614 1.261764 2.612372 1
 1.181875 1.340844 2.522713 1
 3.948735 2.525645 6.474331 1
 3.998096 2.637498 6.635542 1
 3.843473 2.645442 6.488866 1
 3.842246 2.212200 6.054397 1
 3.712051 2.282257 5.994258 1
 3.704172 2.146105 5.850228 1
 1.529652 2.930318 4.459968 1
 3.683997 3.444801 7.128761 1
 2.581689 0.570891 3.152571 1
 2.727676 0.657350 3.385014 1
 2.592718 0.699527 3.292233 1
 3.390509 2.852428 6.242890 1
 0.311474 0.668788 0.980261 1
 0.467381 0.608861 1.076240 1
 0.442229 0.729840 1.172067 1
 3.758397 3.758531 7.516905 1
 3.084625 1.710023 4.794611 1
 3.214273 1.796005 5.010236 1
 3.044488 1.817739 4.862188 1
 3.938292 2.741144 6.679389 1
 1.669384 2.508442 4.177813 1
 1.783510 2.581631 4.365130 1
 1.639057 2.657163 4.296210 1
 1.573964 2.558412 4.132366 1
 2.641909 2.265342 4.907216 1
 6.232086 0.489105 6.721174 1
 6.130297 0.402729 6.533015 1
 6.309723 0.352951 6.662663 1
 6.175150 0.288281 6.463415 1
 1.950579 1.542280 3.492839 1
 4.651967 1.116920 5.768858 1
 2.293576 2.914561 5.208120 1
 2.211674 2.801809 5.013466 1
 2.157629 2.901798 5.059412 1
 3.833107 2.492996 6.326056 1
 0.000000 1.388889 1.388889 1
 0.149972 1.286949 1.436920 1
 0.099357 1.458333 1.557688 1
 1.388889 0.000000 1.388889 1
 1.451688 0.102339 1.554026 1
 1.291612 0.150376 1.441987 1
 0.325970 2.789191 3.115163 1
 0.430034 2.642692 3.072726 1
 4.062547 2.751495 6.813991 1
 1.900319 2.246005 4.146306 1
 2.059149 2.222981 4.282110 1
 3.486349 2.979638 6.465941 1
 3.405792 3.076089 6.481840 1
 3.373044 2.967898 6.340900 1
 3.287072 3.032096 6.319129 1
 1.618358 0.331709 1.950064 1
 1.559231 0.486486 2.045714 1
 1.495906 0.308210 1.804113 1
 5.129714 1.775617 6.905286 1
 4.972393 1.838057 6.810401 1
 5.032820 1.697711 6.730483 1
 5.614038 0.973464 6.587473 1
 5.434222 0.993871 6.428063 1
 5.499931 0.878386 6.378289 1
 1.969311 1.019273 2.988574 1
 2.061746 0.892063 2.953797 1
 2.102736 1.025609 3.128333 1
 2.868498 3.815696 6.684189 1
 0.339635 1.612239 1.951872 1
 0.418746 1.759923 2.178668 1
 0.268489 1.723210 1.991698 1
 0.833333 0.000000 0.833333 1
 0.952749 0.121463 1.074212 1
 0.771428 0.118995 0.890423 1
 0.000000 0.833333 0.833333 1
 0.118995 0.771428 0.890423 1
 0.121463 0.952749 1.074211 1
 3.903397 1.006895 4.910270 1
 0.900401 1.538032 2.438428 1
 3.754267 2.567093 6.321311 1
 4.592384 2.319388 6.911724 1
 4.691078 2.196561 6.887590 1
 4.696296 2.345913 7.042160 1
 4.580345 2.206484 6.786780 1
 2.650289 0.424858 3.075142 1
 2.789191 0.325970 3.115158 1
 5.102249 1.883111 6.985310 1
 1.864834 2.669803 4.534626 1
 5.043925 1.413306 6.457190 1
 5.104763 1.279750 6.384476 1
 0.375573 0.517925 0.893497 1
 2.436220 1.687967 4.124159 1
 2.544760 1.593015 4.137747 1
 2.582546 1.762051 4.344562 1
 4.198955 1.500195 5.699108 1
 3.469650 1.397828 4.867448 1
 3.586089 1.443134 5.029188 1
 3.520157 1.563006 5.083129 1
 4.462722 2.564050 7.026719 1
 4.526483 2.659689 7.186120 1
 4.347877 2.679267 7.027095 1
 4.475300 2.761858 7.237105 1
 0.579927 1.330083 1.910006 1
 0.693155 1.242052 1.935203 1
 0.699880 1.394122 2.093996 1
 2.322065 1.125849 3.447898 1
 2.203482 1.235145 3.438609 1
 2.203379 1.083952 3.287316 1
 3.215673 0.712031 3.927692 1
 3.635818 1.537494 5.173277 1
 3.698988 1.429815 5.128767 1
 3.747811 1.581453 5.329222 1
 3.849503 1.421999 5.271465 1
 3.408179 1.538060 4.946202 1
 4.903107 0.343548 5.246644 1
 1.224287 0.296905 1.521190 1
 1.202538 0.454328 1.656862 1
 1.086883 0.329925 1.416805 1
 1.204282 1.580212 2.784486 1
 1.276246 1.667205 2.943441 1
 0.711800 3.215925 3.927734 1
 0.817296 3.350409 4.167715 1
 0.664800 3.365109 4.029916 1
 3.351627 0.668842 4.020458 1
 1.604082 1.158693 2.762766 1
 0.210360 1.430914 1.641272 1
 0.309166 1.491194 1.800358 1
 4.798086 2.091643 6.889680 1
 4.663584 2.037987 6.701520 1
 3.560399 3.252693 6.813055 1
 3.544816 3.119268 6.664042 1
 0.816208 2.523963 3.340169 1
 0.269519 0.553090 0.822608 1
 0.268505 0.404020 0.672524 1
 3.714597 0.708935 4.423519 1
 3.702993 0.565209 4.268195 1
 3.848248 0.685716 4.533947 1
 3.848161 0.545098 4.393247 1
 1.859522 1.853826 3.713330 1
 0.916679 1.238047 2.154721 1
 0.965835 1.099162 2.064993 1
 1.031494 1.177436 2.208925 1
 2.530812 1.259939 3.790729 1
 2.437385 1.333153 3.770516 1
 2.440845 1.158403 3.599229 1
 1.454482 2.360494 3.814968 1
 1.366972 2.232490 3.599457 1
 1.514913 2.246294 3.761199 1
 2.303614 2.080386 4.383974 1
 2.467033 2.125870 4.592871 1
 2.314073 2.205104 4.519148 1
 2.414804 2.274356 4.689130 1
 4.178657 1.655982 5.834589 1
 4.864355 0.634513 5.498847 1
 4.799226 0.536415 5.335626 1
 2.344617 1.257511 3.602109 1
 2.523767 0.807827 3.331581 1
 0.000000 2.638889 2.638889 1
 0.000000 2.500000 2.500000 1
 0.156563 2.564223 2.720785 1
 2.500000 0.000000 2.500000 1
 2.638889 0.000000 2.638889 1
 2.580803 0.155104 2.735904 1
 0.691302 2.067234 2.758535 1
 0.783778 1.939588 2.723364 1
 0.854382 2.058358 2.912740 1
 3.327806 1.347803 4.675581 1
 3.391597 1.254465 4.646035 1
 4.038846 3.000278 7.039077 1
 4.123266 2.867643 6.990861 1
 4.188133 2.985779 7.173864 1
 3.500594 1.253994 4.754561 1
 5.523998 1.106661 6.630629 1
 5.616538 0.374448 5.990974 1
 0.575569 2.333369 2.908937 1
 0.555307 2.449255 3.004560 1
 0.990665 2.513189 3.503854 1
 3.739409 2.992201 6.731565 1
 0.651550 1.897666 2.549213 1
 4.769942 2.280101 7.049990 1
 4.871974 2.324351 7.196277 1
 4.797622 2.415462 7.213039 1
 2.446260 0.545086 2.991338 1
 4.888039 0.454218 5.342242 1
 1.083317 1.567965 2.651274 1
 4.312762 2.854862 7.167575 1
 4.226376 2.765024 6.991351 1
 4.375290 2.773214 7.148452 1
 4.773951 1.017079 5.791002 1
 3.969128 1.361352 5.330447 1
 3.956628 1.481164 5.437751 1
 0.191461 0.489829 0.681289 1
 1.345006 0.811477 2.156477 1
 1.279948 1.975235 3.255178 1
 1.295532 2.101532 3.397058 1
 1.163028 2.022084 3.185106 1
 3.021576 1.079524 4.101076 1
 3.150005 1.136741 4.286720 1
 3.024085 1.210747 4.234807 1
 3.136336 1.263274 4.399581 1
 3.039363 0.550608 3.589961 1
 2.615546 1.082204 3.697732 1
 2.523352 0.955785 3.479122 1
 0.340190 0.827867 1.168056 1
 0.859163 1.097124 1.956282 1
 4.203020 2.518538 6.721508 1
 4.284287 2.418287 6.702525 1
 4.327531 2.549852 6.877333 1
 3.698022 2.449470 6.147446 1
 3.621327 2.565028 6.186305 1
 1.556893 1.896948 3.453830 1
 1.426256 1.824901 3.251147 1
 1.530432 1.733837 3.264257 1
 3.862222 0.115869 3.978087 1
 3.549135 2.892482 6.441573 1
 3.672231 4.470662 8.142899 1
 3.522887 4.489528 8.012426 1
 0.562077 1.993732 2.555809 1
 3.686920 3.654907 7.341795 1
 3.811975 3.609040 7.420983 1
 3.898018 3.736639 7.634626 1
 3.158106 4.022573 7.180677 1
 3.266143 3.958967 7.225102 1
 3.291701 4.098896 7.390597 1
 4.173781 2.409400 6.583133 1
 4.576276 2.986893 7.563122 1
 4.676769 2.899004 7.575722 1
 4.701535 3.049531 7.751019 1
 2.658534 3.302438 5.960952 1
 3.038144 2.689117 5.727224 1
 2.920684 2.606197 5.526844 1
 3.070481 2.557373 5.627817 1
 3.534906 1.865153 5.400012 1
 3.688168 1.858842 5.546966 1
 3.667001 2.000325 5.667281 1
 4.266639 1.208421 5.475028 1
 4.162879 1.264773 5.427619 1
 4.154629 1.098465 5.253067 1
 1.907914 3.243223 5.151134 1
 2.029438 3.159523 5.188951 1
 2.045098 3.303173 5.348264 1
 3.669930 4.054786 7.724704 1
 3.553286 4.052860 7.606137 1
 0.409535 0.412463 0.821997 1
 0.000000 1.250000 1.250000 1
 1.250000 0.000000 1.250000 1
 3.522048 1.072109 4.594136 1
 0.097560 2.702323 2.799884 1
 2.705536 0.097139 2.802673 1
 5.574383 0.760526 6.334885 1
 5.472854 0.651649 6.124483 1
 0.547388 3.025512 3.572906 1
 0.142591 0.344801 0.487392 1
 0.293416 0.264023 0.557439 1
 3.298969 1.696324 4.995253 1
 3.402265 1.774331 5.176555 1
 3.335945 1.880307 5.216209 1
 0.507339 1.134566 1.641902 1
 0.563142 0.991858 1.554996 1
 0.619008 1.146263 1.765266 1
 3.126991 1.895258 5.022211 1
 0.196901 0.196901 0.393802 1
 2.114829 1.161689 3.276501 1
 1.428417 0.211565 1.639980 1
 1.287793 2.335515 3.623305 1
 1.282266 3.134658 4.416928 1
 1.114740 3.190928 4.305677 1
 1.200760 3.029277 4.230042 1
 1.066132 3.019356 4.085493 1
 1.414853 1.981967 3.396812 1
 2.992458 1.606666 4.599088 1
 2.871074 1.633615 4.504652 1
 4.551707 2.098530 6.650187 1
 1.679207 2.789721 4.468920 1
 1.508932 2.776086 4.285013 1
 1.619870 2.889459 4.509326 1
 4.540506 1.857687 6.398143 1
 0.963276 0.910615 1.873887 1
 4.072998 1.832016 5.904967 1
 4.070199 1.692867 5.763021 1
 3.981842 1.107964 5.089782 1
 4.033360 0.990844 5.024183 1
 4.630215 0.814108 5.444302 1
 1.781925 2.355033 4.136943 1
 2.990162 2.481465 5.471592 1
 3.911410 0.404852 4.316253 1
 3.026370 3.348619 6.374960 1
 0.494141 0.194617 0.688757 1
 0.426389 0.291239 0.717627 1
 0.354120 0.138728 0.492848 1
 4.029822 3.147438 7.177218 1
 3.900661 3.036299 6.936913 1
 4.191768 0.738060 4.929815 1
 4.064754 0.862926 4.927660 1
 4.016786 0.705493 4.722265 1
 4.902018 0.986021 5.888010 1
 2.715771 1.861416 4.577148 1
 2.616538 1.926217 4.542721 1
 2.897116 0.362254 3.259366 1
 3.218712 2.513155 5.731826 1
 3.355587 2.533348 5.888891 1
 3.277953 2.669799 5.947710 1
 4.034224 1.931055 5.965227 1
 3.923554 1.853063 5.776571 1
 0.796502 2.183070 2.979570 1
 4.330723 0.835721 5.166428 1
 4.198482 0.880987 5.079450 1
 0.955972 0.412901 1.368869 1
 0.651486 1.530363 2.181845 1
 4.044223 2.059058 6.103232 1
 4.154537 2.170261 6.324749 1
 3.992948 2.189189 6.182087 1
 4.079422 2.316966 6.396339 1
 1.355590 2.757757 4.113345 1
 1.427904 2.896766 4.324668 1
 1.250350 2.823003 4.073353 1
 3.114750 3.650118 6.764848 1
 3.695457 1.200774 4.896205 1
 2.529763 0.315156 2.844914 1
 2.496198 0.441729 2.937920 1
 0.458728 2.509269 2.967996 1
 0.998214 1.483394 2.481601 1
 1.034647 1.338494 2.373136 1
 1.096392 1.437640 2.534026 1
 0.914497 1.418791 2.333283 1
 1.552569 3.145017 4.697585 1
 0.531076 3.469311 4.000394 1
 0.501801 3.344194 3.846001 1
 4.935510 0.798596 5.734083 1
 0.303327 2.643407 2.946736 1
 0.204520 2.705582 2.910103 1
 4.408943 1.208203 5.617115 1
 2.201414 0.412802 2.614211 1
 1.904876 3.102249 5.007119 1
 1.612268 1.306570 2.918827 1
 0.705132 1.066432 1.771560 1
 3.760977 4.141288 7.902255 1
 3.865321 4.286638 8.151958 1
 3.730860 4.287013 8.017877 1
 5.613404 0.247793 5.861184 1
 5.775684 0.178337 5.954012 1
 5.738230 0.320551 6.058768 1
 2.083333 0.000000 2.083333 1
 2.222222 0.000000 2.222222 1
 2.155499 0.130976 2.286474 1
 0.000000 2.222222 2.222222 1
 0.000000 2.083333 2.083333 1
 0.130890 2.155257 2.286149 1
 0.677595 0.299934 0.977528 1
 0.644156 0.449829 1.093983 1
 0.555341 0.298229 0.853570 1
 0.519273 0.410918 0.930189 1
 0.959141 3.272808 4.231957 1
 0.848638 3.194028 4.042674 1
 4.101400 3.641224 7.742591 1
 4.029352 3.743405 7.772728 1
 3.953509 3.619774 7.573250 1
 1.105655 2.816049 3.921706 1
 1.152034 2.918720 4.070759 1
 1.013140 2.883109 3.896254 1
 1.276167 2.941524 4.217695 1
 2.609238 3.517793 6.127016 1
 2.523007 3.648184 6.171183 1
 2.486100 3.502004 5.988091 1
 2.513322 1.423509 3.936807 1
 2.630529 1.357583 3.988088 1
 1.311510 1.415828 2.727331 1
 0.587877 1.751007 2.338883 1
 0.528754 1.862419 2.391173 1
 2.705582 0.204520 2.910100 1
 2.647284 0.296403 2.943681 1
 3.510444 3.945162 7.455596 1
 5.815335 0.449445 6.264762 1
 1.322060 0.701230 2.023286 1
 0.325855 1.831504 2.157359 1
 1.321646 1.882507 3.204146 1
 4.076138 0.103667 4.179801 1
 3.404548 0.268258 3.672803 1
 3.461062 0.404400 3.865457 1
 3.328546 0.382219 3.710758 1
 3.377062 0.515177 3.892231 1
 0.405477 3.463461 3.868946 1
 0.378596 3.319889 3.698491 1
 0.268258 3.404548 3.672811 1
 5.026401 1.985366 7.011719 1
 5.070536 2.087768 7.158256 1
 4.939309 2.094151 7.033411 1
 1.352674 2.447920 3.800588 1
 1.353049 2.614886 3.967931 1
 0.729831 1.793274 2.523103 1
 0.800232 1.190266 1.990493 1
 0.810924 1.353468 2.164387 1
 2.673563 1.634048 4.307579 1
 4.264057 0.989583 5.253614 1
 4.401928 0.975729 5.377632 1
 3.204232 3.703293 6.907508 1
 3.226218 3.840267 7.066475 1
 3.088363 3.763826 6.852174 1
 1.072271 2.401469 3.473737 1
 0.922144 2.388603 3.310746 1
 3.193962 1.666452 4.860373 1
 1.464859 2.537365 4.002218 1
 3.890006 4.160296 8.050287 1
 1.029407 2.740659 3.770067 1
 4.640522 2.762918 7.403391 1
 3.793797 2.080250 5.874001 1
 2.763805 1.037202 3.800988 1
 4.891725 1.989285 6.880960 1
 3.834103 2.353311 6.187366 1
 3.951665 2.410690 6.362308 1
 1.179332 2.145504 3.324831 1
 5.656200 0.116656 5.772848 1
 2.174151 3.085896 5.260031 1
 2.100081 2.995924 5.095992 1
 1.980043 3.005756 4.985788 1
 4.133937 2.644026 6.777914 1
 4.077076 2.488711 6.565737 1
 3.754119 0.403516 4.157628 1
 3.514709 1.719278 5.233947 1
 5.171740 0.594230 5.765953 1
 3.433949 2.407681 5.841583 1
 3.570265 2.320343 5.890562 1
 3.555036 2.463536 6.018525 1
 3.601026 0.455091 4.056112 1
 3.536094 0.303084 3.839174 1
 0.455974 3.598279 4.054261 1
 0.303318 3.536052 3.839375 1
 1.019990 1.005327 2.025312 1
 3.196591 2.947488 6.144041 1
 1.627476 1.784595 3.412059 1
 4.562850 2.864707 7.427506 1
 2.529548 2.292510 4.822027 1
 3.405697 4.008058 7.413745 1
 4.287328 0.156011 4.443335 1
 4.437894 0.163075 4.600967 1
 4.342330 0.685432 5.027749 1
 3.134465 3.448697 6.583136 1
 3.206612 3.570246 6.776837 1
 3.806587 1.955921 5.762462 1
 3.944605 1.966865 5.911420 1
 4.564247 1.248620 5.812834 1
 4.526571 1.138205 5.664747 1
 2.518943 1.873322 4.392233 1
 3.615175 1.304414 4.919556 1
 1.940146 0.871278 2.811415 1
 0.360182 2.896423 3.256608 1
 2.818202 2.930408 5.748581 1
 4.323374 1.097108 5.420456 1
 2.910152 0.242337 3.152486 1
 3.056968 0.169976 3.226943 1
 3.022608 0.329511 3.352113 1
 2.709339 2.016364 4.725665 1
 1.126688 0.709832 1.836515 1
 2.803290 1.965028 4.768280 1
 2.023181 0.094830 2.118011 1
 0.092829 2.016189 2.109020 1
 0.349809 0.337138 0.686946 1
 1.802902 0.244661 2.047561 1
 0.226299 1.817828 2.044126 1
 3.484943 0.629437 4.114371 1
 3.761477 1.293916 5.055363 1
 0.969066 3.120357 4.089427 1
 4.448486 0.731356 5.179826 1
 2.404523 1.959093 4.363588 1
 1.284990 0.997983 2.282967 1
 1.130524 1.080647 2.211166 1
 0.355013 3.178329 3.533348 1
 0.264285 3.290146 3.554437 1
 0.243069 3.144606 3.387679 1
 3.181105 0.357897 3.538997 1
 3.139652 0.247285 3.386932 1
 3.290539 0.264936 3.555472 1
 1.453294 2.143997 3.597283 1
 3.651117 0.340842 3.991955 1
 3.158952 4.149160 7.308114 1
 3.355225 4.213881 7.569112 1
 4.550630 1.464148 6.014737 1
 5.776108 0.965661 6.741744 1
 5.746908 1.073127 6.820005 1
 4.365158 2.329854 6.694961 1
 4.413340 2.452439 6.865726 1
 2.765934 1.452646 4.218552 1
 2.749717 1.333528 4.083219 1
 4.066500 1.192001 5.258470 1
 3.622439 1.656989 5.279387 1
 3.719571 1.738871 5.458396 1
 4.095340 3.866561 7.961874 1
 4.196617 3.755592 7.952183 1
 3.590630 2.684185 6.274765 1
 0.856220 3.040886 3.897112 1
 0.748270 3.084017 3.832294 1
 2.138441 0.481055 2.619491 1
 0.132785 3.358270 3.491058 1
 3.358270 0.132785 3.491051 1
 5.274645 0.556224 5.830850 1
 5.348751 0.647325 5.996056 1
 5.209572 0.706741 5.916292 1
 4.410639 1.931589 6.342179 1
 0.213983 0.864530 1.078512 1
 2.983404 0.661308 3.644702 1
 1.866400 2.102868 3.969251 1
 3.518463 2.154564 5.672982 1
 3.409978 2.049430 5.459364 1
 3.524222 2.006972 5.531148 1
 4.571433 0.430196 5.001617 1
 4.490055 0.339435 4.829482 1
 4.656291 0.343453 4.999736 1
 4.579339 0.224829 4.804163 1
 1.636586 1.009266 2.645843 1
 1.732573 0.938516 2.671080 1
 3.485222 4.369045 7.854275 1
 2.305499 2.586493 4.891973 1
 2.329350 2.436040 4.765365 1
 2.447927 2.498250 4.946151 1
 2.426300 1.809981 4.236249 1
 2.331050 1.877390 4.208410 1
 3.424379 0.747733 4.172099 1
 1.717798 1.875217 3.593002 1
 3.233610 2.820423 6.053993 1
 0.555556 0.000000 0.555556 1
 0.694444 0.000000 0.694444 1
 0.624231 0.153507 0.777738 1
 0.000000 0.694444 0.694444 1
 0.000000 0.555556 0.555556 1
 0.152226 0.623898 0.776123 1
 0.420917 1.928146 2.349062 1
 2.065522 1.484890 3.550392 1
 2.097991 1.597253 3.695221 1
 3.609948 1.775104 5.385008 1
 4.109686 1.573721 5.683365 1
 2.649626 1.500520 4.150114 1
 4.370944 3.065555 7.436452 1
 4.445385 2.912859 7.358193 1
 4.486003 3.063442 7.549397 1
 2.429618 2.873436 5.303032 1
 4.065104 0.412415 4.477513 1
 4.131865 0.522479 4.654334 1
 1.638687 2.005035 3.643710 1
 3.313319 3.773828 7.087132 1
 4.476840 2.359542 6.836333 1
 4.469009 2.230560 6.699521 1
 5.293349 0.250840 5.544180 1
 3.105634 3.030736 6.136336 1
 3.212515 1.527108 4.739587 1
 3.306975 1.590395 4.897332 1
 1.710454 0.548027 2.258476 1
 4.749104 1.959170 6.708226 1
 3.334796 3.669358 7.004136 1
 0.849068 1.832281 2.681346 1
 0.000000 3.333333 3.333333 1
 3.333333 0.000000 3.333333 1
 3.130578 3.901307 7.031879 1
 1.536053 2.034399 3.570441 1
 0.580966 1.624627 2.205591 1
 1.998213 1.664424 3.662615 1
 2.212756 2.982619 5.195357 1
 0.759233 0.229289 0.988522 1
 5.401428 0.214096 5.615516 1
 3.253668 3.446566 6.700206 1
 3.578319 1.177414 4.755703 1
 1.687407 3.196637 4.884042 1
 1.494737 1.249506 2.744236 1
 1.464182 1.376227 2.840400 1
 1.846440 0.980156 2.826587 1
 3.004563 3.449836 6.454370 1
 2.875806 3.413953 6.289735 1
 2.864636 0.691966 3.556591 1
 3.905096 3.170962 7.076015 1
 2.586313 2.176878 4.763157 1
 2.653286 3.746954 6.400237 1
 2.556775 3.810593 6.367371 1
 1.341398 0.280135 1.621532 1
 4.030450 3.517035 7.547450 1
 1.831876 0.613857 2.445727 1
 1.973511 0.573318 2.546822 1
 1.925536 0.727707 2.653234 1
 2.071491 0.687137 2.758620 1
 6.096727 0.612747 6.709452 1
 6.209965 0.725599 6.935542 1
 6.069672 0.717208 6.786859 1
 5.416667 0.000000 5.416667 1
 5.555555 0.000000 5.555555 1
 5.504745 0.142925 5.647664 1
 3.717463 2.749289 6.466703 1
 3.705432 2.642207 6.347589 1
 4.135249 0.629142 4.764380 1
 2.772818 3.517823 6.290627 1
 5.197884 0.982405 6.180264 1
 5.300575 1.056993 6.357538 1
 1.002043 1.704599 2.706638 1
 2.262336 1.955468 4.217776 1
 4.567456 3.148981 7.716395 1
 5.776990 0.694899 6.471864 1
 5.785912 0.573163 6.359056 1
 6.204954 0.596510 6.801444 1
 1.580054 1.423513 3.003555 1
 3.845217 1.716956 5.562129 1
 1.117136 0.585166 1.702297 1
 0.943857 0.568149 1.512002 1
 1.061277 0.470094 1.531367 1
 4.267220 3.534466 7.801651 1
 4.334121 3.451462 7.785544 1
 4.366788 3.584994 7.951750 1
 3.796619 1.824731 5.621302 1
 4.299214 2.967769 7.266935 1
 3.904215 2.075878 5.980043 1
 0.957942 2.990262 3.948209 1
 3.322062 1.462646 4.784677 1
 2.713194 0.536243 3.249429 1
 3.259622 3.307623 6.567215 1
 3.970571 1.752461 5.722982 1
 1.728074 0.715074 2.443142 1
 0.590910 1.441185 2.032091 1
 0.690698 2.862676 3.553377 1
 2.276365 3.172421 5.448767 1
 2.319116 3.273398 5.592495 1
 1.345885 1.133201 2.479080 1
 0.568243 1.226271 1.794510 1
 1.645534 0.899312 2.544837 1
 1.544757 0.940892 2.485643 1
 0.537335 2.709244 3.246580 1
 2.385357 3.105984 5.491319 1
 5.066491 0.106432 5.172915 1
 0.246848 2.913737 3.160588 1
 0.321435 3.020672 3.342111 1
 0.169776 3.057310 3.227090 1
 1.507207 1.487833 2.995028 1
 5.736123 0.856853 6.592954 1
 3.308843 3.184427 6.493237 1
 0.878031 0.714775 1.592801 1
 0.778876 0.819733 1.598604 1
 0.717826 0.702975 1.420797 1
 3.145880 2.740204 5.886043 1
 1.691617 0.243349 1.934964 1
 2.057900 2.608670 4.666555 1
 2.111815 2.711766 4.823567 1
 1.976511 2.685504 4.662001 1
 2.005661 2.793774 4.799421 1
 2.413283 1.549996 3.963254 1
 0.472575 1.652194 2.124768 1
 3.136050 0.991132 4.127160 1
 5.053280 1.586605 6.639839 1
 5.171651 1.655489 6.827092 1
 0.487143 0.090776 0.577918 1
 0.086995 0.486111 0.573106 1
 4.117604 0.318278 4.435878 1
 5.094077 1.486866 6.580897 1
 5.857598 0.815424 6.672997 1
 4.995025 2.181149 7.176124 1
 5.106811 2.203736 7.310495 1
 4.991894 2.301419 7.293266 1
 6.111111 0.000000 6.111111 1
 6.250000 0.000000 6.250000 1
 6.180937 0.137478 6.318410 1
 4.359907 3.812293 8.172172 1
 4.230332 3.864177 8.094487 1
 5.636862 1.106228 6.743056 1
 2.964751 3.791596 6.756340 1
 3.722780 0.273609 3.996385 1
 5.678832 0.759675 6.438484 1
 1.572444 2.445432 4.017866 1
 0.630066 0.830477 1.460539 1
 0.492288 0.849073 1.341358 1
 0.592840 0.709844 1.302682 1
 2.928959 1.278061 4.206993 1
 0.786546 0.529079 1.315622 1
 6.324122 0.610765 6.934871 1
 1.818970 0.832252 2.651214 1
 5.847640 0.347198 6.194827 1
 3.108794 1.581715 4.690471 1
 3.944857 3.279537 7.224354 1
 4.080956 3.284735 7.365648 1
 3.979446 3.402946 7.382355 1
 1.244893 1.102499 2.347385 1
 0.277778 0.000000 0.277778 1
 0.416667 0.000000 0.416667 1
 0.000000 0.416667 0.416667 1
 0.000000 0.277778 0.277778 1
 4.129733 3.082790 7.212478 1
 5.589827 1.204062 6.793853 1
 5.700864 1.196129 6.896958 1
 5.639409 1.351996 6.991367 1
 3.033436 3.865733 6.899161 1
 1.672118 0.432130 2.104245 1
 5.291018 1.165540 6.456524 1
 3.839779 3.241144 7.080881 1
 4.133654 1.954951 6.088554 1
 4.167809 2.050471 6.218230 1
 5.622250 0.846234 6.468457 1
 0.000000 3.055556 3.055556 1
 0.108668 2.953682 3.062349 1
 3.055556 0.000000 3.055556 1
 2.952795 0.107677 3.060471 1
 3.436522 2.260481 5.696961 1
 4.274614 2.090020 6.364581 1
 1.115047 1.241050 2.356092 1
 4.329508 3.709597 8.039069 1
 5.878862 0.239091 6.117941 1
 4.153842 4.086401 8.240231 1
 4.099603 4.201324 8.300916 1
 3.998106 4.081865 8.079951 1
 3.977496 4.237344 8.214828 1
 2.865752 0.975219 3.840952 1
 2.901945 1.074872 3.976796 1
 2.819974 1.143045 3.962999 1
 2.107658 2.346035 4.453671 1
 5.876892 0.663522 6.540391 1
 5.972222 0.000000 5.972222 1
 6.067082 0.109985 6.177061 1
 5.898426 0.116071 6.014490 1
 3.957970 0.911975 4.869925 1
 3.959849 2.875437 6.835240 1
 0.390641 1.407513 1.798151 1
 0.441784 1.278391 1.720172 1
 0.496440 1.418488 1.914925 1
 1.910382 2.878036 4.788407 1
 1.864057 2.985655 4.849699 1
 1.750556 2.901249 4.651797 1
 1.129870 2.711843 3.841711 1
 1.458757 1.139654 2.598405 1
 3.478721 3.539876 7.018569 1
 2.141032 3.189655 5.330673 1
 3.883708 1.567199 5.450863 1
 2.087509 2.079071 4.166553 1
 2.189418 2.140769 4.330162 1
 2.199541 2.264792 4.464309 1
 3.139514 2.120711 5.260185 1
 3.296390 2.111793 5.408143 1
 3.199289 2.221692 5.420938 1
 1.882226 2.368093 4.250304 1
 1.944444 0.000000 1.944444 1
 0.000000 1.944444 1.944444 1
 2.162515 0.902203 3.064705 1
 2.171318 2.578232 4.749530 1
 5.387472 0.522666 5.910120 1
 4.540211 2.455931 6.996091 1
 4.611162 2.568521 7.179635 1
 3.915571 0.802402 4.717958 1
 1.994545 1.394618 3.389146 1
 0.208161 2.029161 2.237323 1
 2.029161 0.208161 2.237323 1
 5.404268 1.122500 6.526738 1
 5.468201 1.238726 6.706893 1
 4.675114 2.456182 7.131247 1
 4.762679 2.571348 7.333976 1
 3.080878 0.732427 3.813290 1
 3.040666 0.853878 3.894529 1
 3.959123 0.513422 4.472536 1
 5.967681 0.740476 6.708137 1
 3.384558 3.882700 7.267247 1
 5.389453 0.105653 5.495102 1
 2.798532 3.650784 6.449303 1
 3.631456 2.815304 6.446715 1
 3.726347 0.895825 4.622152 1
 1.928613 1.772891 3.701483 1
 3.941152 0.610507 4.551648 1
 2.850164 2.348053 5.198181 1
 2.930329 2.224630 5.154922 1
 2.984742 2.359340 5.344044 1
 4.067390 1.302073 5.369427 1
 4.148262 1.378936 5.527163 1
 4.070376 1.461076 5.531415 1
 5.359257 0.759984 6.119218 1