TITLE      =  "2D FE Unstructured grid data" 
VARIABLES = "X", "Y", "U", "Dom" 
ZONE T="P1", F=FEPOINT, N= 629 E= 1156  ET=TRIANGLE 
 0.000000 3.800000 3.800000 0
 0.173205 3.900000 4.073211 0
 0.000000 4.000000 4.000000 0
 0.173205 4.100000 4.273208 0
 0.000000 4.200000 4.200000 0
 0.173205 4.300000 4.473209 0
 0.000000 4.400000 4.400000 0
 0.173205 4.500000 4.673212 0
 0.000000 4.600000 4.600000 0
 0.173205 4.700000 4.873212 0
 0.000000 4.800000 4.800000 0
 0.173205 4.900000 5.073209 0
 0.000000 5.000000 5.000000 0
 0.000000 5.200000 5.200000 0
 0.173205 5.100000 5.273209 0
 0.173205 5.300000 5.473210 0
 0.000000 5.400000 5.400000 0
 0.173205 5.500000 5.673213 0
 0.000000 5.600000 5.600000 0
 0.173205 5.700000 5.873210 0
 0.000000 5.800000 5.800000 0
 0.173205 5.900000 6.073212 0
 0.000000 6.000000 6.000000 0
 0.173205 6.100000 6.273209 0
 0.000000 6.200000 6.200000 0
 0.173205 6.300000 6.473210 0
 0.000000 6.400000 6.400000 0
 0.173205 6.500000 6.673207 0
 0.000000 6.600000 6.600000 0
 0.173205 6.700000 6.873208 0
 0.000000 6.800000 6.800000 0
 0.173205 6.900000 7.073205 0
 0.000000 7.000000 7.000000 0
 0.173205 7.100000 7.273205 0
 0.000000 7.200000 7.200000 0
 0.173205 7.300000 7.473205 0
 0.000000 7.400000 7.400000 0
 0.173205 7.500000 7.673202 0
 0.000000 7.600000 7.600000 0
 0.173205 7.699999 7.873203 0
 0.000000 7.800000 7.800000 0
 0.173210 7.899996 8.073196 0
 0.000000 8.000000 8.000000 0
 0.173231 8.100002 8.273230 0
 0.000000 8.200000 8.200000 0
 0.173282 8.300057 8.473339 0
 0.000000 8.400000 8.400000 0
 0.173355 8.500252 8.673606 0
 0.000000 8.600000 8.600000 0
 0.173396 8.700693 8.874089 0
 0.000000 8.800000 8.800000 0
 0.173305 8.901406 9.074710 0
 0.000000 9.000000 9.000000 0
 0.173112 9.102262 9.275377 0
 0.000000 9.200000 9.200000 0
 0.173339 9.303297 9.476637 0
 0.000000 9.400000 9.400000 0
 0.175066 9.506494 9.681561 0
 0.000000 9.600000 9.600000 0
 0.164370 9.702746 9.867118 0
 0.000000 9.800000 9.800000 0
 0.087359 9.912414 9.999780 0
 0.000000 10.000000 10.000000 0
 0.200000 10.000000 10.200000 0
 0.295277 9.833226 10.128506 0
 0.400000 10.000000 10.400000 0
 0.491419 9.819784 10.311210 0
 0.600000 10.000000 10.600000 0
 0.696277 9.819970 10.516251 0
 0.800000 10.000000 10.800000 0
 0.898880 9.822006 10.720886 0
 1.000000 10.000000 11.000000 0
 1.099898 9.824569 10.924470 0
 1.200000 10.000000 11.200000 0
 1.300002 9.825985 11.125986 0
 1.400000 10.000000 11.400000 0
 1.499953 9.826576 11.326532 0
 1.600000 10.000000 11.600000 0
 1.699943 9.826763 11.526707 0
 1.800000 10.000000 11.800000 0
 1.899964 9.826800 11.726770 0
 2.000000 10.000000 12.000000 0
 2.099984 9.826799 11.926780 0
 2.200000 10.000000 12.200000 0
 2.299995 9.826796 12.126795 0
 2.400000 10.000000 12.400000 0
 2.499999 9.826795 12.326797 0
 2.600000 10.000000 12.600000 0
 2.700000 9.826795 12.526802 0
 2.800000 10.000000 12.800000 0
 2.900000 9.826795 12.726795 0
 3.000000 10.000000 13.000000 0
 3.100000 9.826795 12.926801 0
 3.200000 10.000000 13.200000 0
 3.300000 9.826795 13.126795 0
 3.400000 10.000000 13.400000 0
 3.500000 9.826795 13.326797 0
 3.600000 10.000000 13.600000 0
 0.149413 9.849668 9.999085 0
 0.346410 4.000000 4.346421 0
 0.346410 4.200000 4.546425 0
 0.346410 4.400000 4.746421 0
 0.346410 4.600000 4.946420 0
 0.346410 4.800000 5.146422 0
 0.346410 5.000000 5.346421 0
 0.346410 5.200000 5.546418 0
 0.346410 5.400000 5.746418 0
 0.346410 5.600000 5.946418 0
 0.346410 5.800000 6.146420 0
 0.346410 6.000000 6.346419 0
 0.346410 6.200000 6.546417 0
 0.346410 6.400000 6.746418 0
 0.346410 6.600000 6.946413 0
 0.346410 6.800000 7.146410 0
 0.346410 7.000000 7.346407 0
 0.346410 7.200000 7.546410 0
 0.346410 7.400000 7.746407 0
 0.346408 7.599998 7.946398 0
 0.346411 7.799990 8.146392 0
 0.346439 7.999973 8.346406 0
 0.346539 8.199990 8.546527 0
 0.346761 8.400186 8.746944 0
 0.347051 8.600819 8.947871 0
 0.347170 8.802126 9.149298 0
 0.346724 9.003945 9.350673 0
 0.345804 9.205498 9.551305 0
 0.346365 9.405966 9.752330 0
 0.366420 9.627176 9.993608 0
 0.590643 9.638189 10.228835 0
 0.797026 9.639455 10.436480 0
 1.000504 9.647519 10.648025 0
 1.200404 9.651418 10.851825 0
 1.400005 9.653032 11.053041 0
 1.599845 9.653549 11.253397 0
 1.799859 9.653640 11.453503 0
 1.999921 9.653622 11.653550 0
 2.199967 9.653599 11.853568 0
 2.399989 9.653590 12.053584 0
 2.599997 9.653589 12.253593 0
 2.799999 9.653589 12.453598 0
 3.000000 9.653590 12.653598 0
 3.200000 9.653590 12.853607 0
 0.519615 4.100000 4.619633 0
 0.519615 4.300000 4.819633 0
 0.519615 4.500000 5.019632 0
 0.519615 4.700000 5.219634 0
 0.519615 4.900000 5.419627 0
 0.519615 5.100000 5.619628 0
 0.519615 5.300000 5.819626 0
 0.519615 5.500000 6.019629 0
 0.519615 5.700000 6.219628 0
 0.519615 5.900000 6.419628 0
 0.519615 6.100000 6.619624 0
 0.519615 6.300000 6.819623 0
 0.519615 6.500000 7.019619 0
 0.519615 6.700000 7.219615 0
 0.519615 6.900000 7.419611 0
 0.519615 7.100000 7.619609 0
 0.519615 7.300002 7.819612 0
 0.519613 7.500002 8.019608 0
 0.519607 7.699993 8.219588 0
 0.519617 7.899950 8.419559 0
 0.519721 8.099868 8.619583 0
 0.520078 8.299863 8.819943 0
 0.520832 8.500332 9.021159 0
 0.521715 8.701867 9.223580 0
 0.522033 8.904896 9.426928 0
 0.520167 9.108484 9.628654 0
 0.516094 9.309842 9.825937 0
 0.502026 9.483924 9.985955 0
 0.691279 9.438541 10.129822 0
 0.905519 9.469888 10.375409 0
 1.102293 9.477044 10.579343 0
 1.300466 9.479819 10.780285 0
 1.499710 9.480616 10.980326 0
 1.699596 9.480661 11.180265 0
 1.899716 9.480534 11.380263 0
 2.099850 9.480433 11.580289 0
 2.299935 9.480390 11.780333 0
 2.499976 9.480380 11.980367 0
 2.699993 9.480382 12.180386 0
 2.899999 9.480384 12.380392 0
 3.100000 9.480385 12.580399 0
 3.300000 9.480385 12.780402 0
 0.692820 4.200000 4.892841 0
 0.692820 4.400000 5.092841 0
 0.692820 4.600000 5.292838 0
 0.692820 4.800000 5.492840 0
 0.692820 5.000000 5.692837 0
 0.692820 5.200000 5.892833 0
 0.692820 5.400000 6.092836 0
 0.692820 5.600000 6.292837 0
 0.692820 5.800000 6.492837 0
 0.692820 6.000000 6.692832 0
 0.692820 6.200000 6.892828 0
 0.692820 6.400000 7.092825 0
 0.692820 6.600000 7.292821 0
 0.692820 6.800000 7.492818 0
 0.692822 7.000001 7.692815 0
 0.692824 7.200005 7.892821 0
 0.692827 7.400013 8.092827 0
 0.692819 7.600022 8.292830 0
 0.692793 7.799987 8.492764 0
 0.692804 7.999825 8.692623 0
 0.693086 8.199495 8.892581 0
 0.694128 8.399289 9.093419 0
 0.696392 8.600256 9.296644 0
 0.698498 8.803503 9.502000 0
 0.699922 9.010504 9.710426 0
 0.692332 9.217192 9.909531 0
 0.837106 9.311172 10.148281 0
 1.006657 9.305138 10.311792 0
 1.201722 9.308072 10.509797 0
 1.399538 9.308581 10.708123 0
 1.599009 9.308180 10.907199 0
 1.799177 9.307693 11.106875 0
 1.999483 9.307365 11.306862 0
 2.199725 9.307206 11.506944 0
 2.399874 9.307160 11.707045 0
 2.599952 9.307162 11.907127 0
 2.799986 9.307173 12.107177 0
 2.999997 9.307178 12.307193 0
 3.200000 9.307179 12.507200 0
 3.400000 9.307179 12.707206 0
 0.866025 4.300000 5.166050 0
 0.866025 4.500000 5.366049 0
 0.866025 4.700000 5.566047 0
 0.866025 4.900000 5.766047 0
 0.866025 5.100000 5.966043 0
 0.866025 5.300000 6.166046 0
 0.866025 5.500000 6.366043 0
 0.866025 5.700000 6.566044 0
 0.866025 5.900000 6.766040 0
 0.866025 6.100000 6.966038 0
 0.866025 6.300000 7.166033 0
 0.866025 6.500000 7.366028 0
 0.866026 6.700000 7.566025 0
 0.866029 6.900002 7.766024 0
 0.866039 7.100008 7.966035 0
 0.866061 7.300032 8.166080 0
 0.866084 7.500082 8.366155 0
 0.866058 7.700128 8.566168 0
 0.865936 7.900033 8.765951 0
 0.865847 8.099525 8.965363 0
 0.866400 8.298420 9.164816 0
 0.868979 8.497291 9.366269 0
 0.875921 8.699565 9.575485 0
 0.877405 8.904689 9.782094 0
 0.891755 9.125154 10.016910 0
 1.103856 9.139504 10.243361 0
 1.299141 9.138507 10.437650 0
 1.497783 9.136682 10.634472 0
 1.697985 9.135341 10.833333 0
 1.898566 9.134526 11.033103 0
 2.099104 9.134078 11.233191 0
 2.299514 9.133916 11.433449 0
 2.499775 9.133906 11.633700 0
 2.699914 9.133938 11.833873 0
 2.899974 9.133962 12.033960 0
 3.099994 9.133972 12.233989 0
 3.299999 9.133974 12.434000 0
 3.500000 9.133975 12.634003 0
 1.039230 4.400000 5.439255 0
 1.039230 4.600000 5.639256 0
 1.039230 4.800000 5.839257 0
 1.039230 5.000000 6.039252 0
 1.039230 5.200000 6.239252 0
 1.039230 5.400000 6.439250 0
 1.039230 5.600000 6.639246 0
 1.039230 5.800000 6.839249 0
 1.039230 6.000000 7.039247 0
 1.039230 6.200000 7.239242 0
 1.039230 6.400000 7.439236 0
 1.039231 6.600001 7.639231 0
 1.039236 6.800003 7.839233 0
 1.039256 7.000013 8.039260 0
 1.039316 7.200050 8.239352 0
 1.039425 7.400152 8.439564 0
 1.039524 7.600350 8.639857 0
 1.039431 7.800554 8.839966 0
 1.038928 8.000355 9.039270 0
 1.038239 8.198991 9.237222 0
 1.038748 8.395752 9.434500 0
 1.043566 8.590389 9.633962 0
 1.072745 8.801568 9.874317 0
 1.028295 8.988511 10.016811 0
 1.197861 8.972159 10.170023 0
 1.395215 8.966660 10.361878 0
 1.595684 8.963572 10.559257 0
 1.796708 8.962122 10.758837 0
 1.997642 8.961090 10.958743 0
 2.198525 8.960625 11.159162 0
 2.399208 8.960560 11.359786 0
 2.599639 8.960635 11.560293 0
 2.799864 8.960711 11.760598 0
 2.999959 8.960751 11.960737 0
 3.199991 8.960765 12.160781 0
 3.399999 8.960769 12.360793 0
 1.039230 4.200000 5.239260 0
 1.212436 4.300000 5.512466 0
 1.212436 4.500000 5.712465 0
 1.212436 4.700000 5.912462 0
 1.212436 4.900000 6.112462 0
 1.212436 5.100000 6.312461 0
 1.212436 5.300000 6.512460 0
 1.212436 5.500000 6.712456 0
 1.212436 5.700000 6.912454 0
 1.212436 5.900000 7.112453 0
 1.212436 6.100000 7.312448 0
 1.212436 6.300000 7.512445 0
 1.212436 6.500001 7.712435 0
 1.212441 6.700006 7.912444 0
 1.212470 6.900021 8.112480 0
 1.212568 7.100065 8.312622 0
 1.212807 7.300199 8.512988 0
 1.213204 7.500542 8.713728 0
 1.213525 7.701184 8.914691 0
 1.213168 7.901902 9.115057 0
 1.211372 8.101635 9.312998 0
 1.208524 8.298485 9.507006 0
 1.207365 8.490920 9.698284 0
 1.198787 8.657331 9.856125 0
 1.289487 8.798874 10.088362 0
 1.491479 8.791008 10.282497 0
 1.693833 8.790569 10.484410 0
 1.894788 8.788484 10.683284 0
 2.096297 8.787249 10.883561 0
 2.297776 8.787024 11.084813 0
 2.498837 8.787168 11.286028 0
 2.699479 8.787353 11.486855 0
 2.899807 8.787477 11.687307 0
 3.099944 8.787536 11.887506 0
 3.299988 8.787558 12.087578 0
 1.212436 4.100000 5.312460 0
 3.499998 8.787563 12.287596 0
 1.385641 4.200000 5.585667 0
 1.385641 4.400000 5.785669 0
 1.385641 4.600000 5.985669 0
 1.385641 4.800000 6.185666 0
 1.385641 5.000000 6.385667 0
 1.385641 5.200000 6.585665 0
 1.385641 5.400000 6.785662 0
 1.385641 5.600000 6.985662 0
 1.385641 5.800000 7.185654 0
 1.385641 6.000000 7.385654 0
 1.385641 6.200000 7.585650 0
 1.385641 6.400003 7.785649 0
 1.385645 6.600013 7.985657 0
 1.385671 6.800036 8.185701 0
 1.385785 7.000087 8.385860 0
 1.386127 7.200213 8.586322 0
 1.386880 7.400575 8.787441 0
 1.388046 7.601508 8.989538 0
 1.388889 7.803306 9.192184 0
 1.387798 8.005581 9.393365 0
 1.382062 8.205519 9.587576 0
 1.373500 8.398758 9.772259 0
 1.381267 8.605203 9.986471 0
 1.592447 8.622175 10.214626 0
 1.789969 8.617206 10.407187 0
 1.991925 8.613585 10.605521 0
 2.194823 8.613128 10.807974 0
 2.396979 8.613378 11.010374 0
 2.598446 8.613739 11.212205 0
 2.799324 8.614036 11.413379 0
 2.999760 8.614221 11.614008 0
 3.199934 8.614312 11.814268 0
 3.399987 8.614347 12.014362 0
 1.385641 4.000000 5.385666 0
 1.558846 4.099999 5.658866 0
 1.558846 4.300000 5.858869 0
 1.558846 4.500000 6.058872 0
 1.558846 4.700000 6.258873 0
 1.558846 4.900000 6.458873 0
 1.558846 5.100000 6.658871 0
 1.558846 5.300000 6.858869 0
 1.558846 5.500000 7.058867 0
 1.558846 5.700000 7.258867 0
 1.558846 5.900000 7.458859 0
 1.558846 6.100001 7.658857 0
 1.558845 6.300006 7.858858 0
 1.558846 6.500023 8.058869 0
 1.558861 6.700066 8.258926 0
 1.558951 6.900141 8.459086 0
 1.559287 7.100255 8.659533 0
 1.560212 7.300487 8.860685 0
 1.562179 7.501207 9.063371 0
 1.565275 7.703406 9.268671 0
 1.567110 7.907842 9.474936 0
 1.565199 8.115053 9.680248 0
 1.546206 8.315174 9.861379 0
 1.515137 8.478414 9.993553 0
 1.681332 8.452022 10.133362 0
 1.883240 8.437768 10.321009 0
 2.089862 8.438546 10.528420 0
 2.293504 8.439113 10.732623 0
 2.496213 8.439630 10.935866 0
 2.698119 8.440176 11.138312 0
 2.899234 8.440637 11.339892 0
 3.099753 8.440932 11.540712 0
 3.299941 8.441079 11.741051 0
 1.558847 3.899996 5.458864 0
 3.499990 8.441135 11.941161 0
 1.732052 3.999993 5.732065 0
 1.732051 4.199999 5.932073 0
 1.732051 4.400000 6.132073 0
 1.732051 4.600000 6.332080 0
 1.732051 4.800000 6.532080 0
 1.732051 5.000000 6.732076 0
 1.732051 5.200000 6.932077 0
 1.732051 5.400000 7.132076 0
 1.732051 5.600000 7.332072 0
 1.732051 5.800000 7.532066 0
 1.732051 6.000001 7.732064 0
 1.732049 6.200009 7.932065 0
 1.732046 6.400037 8.132089 0
 1.732044 6.600110 8.332159 0
 1.732081 6.800243 8.532320 0
 1.732294 7.000411 8.732697 0
 1.733050 7.200540 8.933579 0
 1.735063 7.400663 9.135717 0
 1.739484 7.601478 9.340959 0
 1.748008 7.806480 9.554481 0
 1.749123 8.015097 9.764218 0
 1.759415 8.243134 10.002547 0
 1.984877 8.263465 10.248351 0
 2.188312 8.264641 10.452964 0
 2.392163 8.264791 10.656962 0
 2.595653 8.265425 10.861097 0
 2.798052 8.266356 11.064426 0
 2.999314 8.267144 11.266483 0
 3.199824 8.267626 11.467475 0
 3.399973 8.267846 11.667857 0
 3.600001 8.267923 11.867961 0
 1.905258 4.099989 6.005267 0
 1.905256 4.299998 6.205275 0
 1.905256 4.500000 6.405280 0
 1.905256 4.700000 6.605281 0
 1.905256 4.900000 6.805279 0
 1.905256 5.100000 7.005278 0
 1.905256 5.300000 7.205281 0
 1.905256 5.500000 7.405279 0
 1.905256 5.700000 7.605269 0
 1.905255 5.900002 7.805265 0
 1.905252 6.100012 8.005267 0
 1.905241 6.300050 8.205297 0
 1.905221 6.500155 8.405378 0
 1.905201 6.700376 8.605574 0
 1.905248 6.900702 8.805953 0
 1.905595 7.100961 9.006550 0
 1.906852 7.300796 9.207645 0
 1.910262 7.499844 9.410101 0
 1.918193 7.697887 9.616071 0
 1.950637 7.914224 9.864855 0
 1.905195 8.105431 10.010621 0
 2.081671 8.092043 10.173717 0
 2.285515 8.089336 10.374859 0
 2.491219 8.088972 10.580204 0
 2.695870 8.090572 10.786457 0
 2.898513 8.092359 10.990891 0
 3.099648 8.093670 11.193342 0
 3.299981 8.094345 11.394359 0
 3.500030 8.094620 11.594685 0
 3.700018 8.094711 11.794771 0
 2.078462 4.399997 6.478482 0
 2.078461 4.600000 6.678485 0
 2.078461 4.800000 6.878486 0
 2.078461 5.000000 7.078487 0
 2.078461 5.200000 7.278485 0
 2.078461 5.400000 7.478481 0
 2.078461 5.600000 7.678483 0
 2.078460 5.800002 7.878475 0
 2.078453 6.000012 8.078471 0
 2.078431 6.200055 8.278493 0
 2.078385 6.400184 8.478571 0
 2.078314 6.600483 8.678797 0
 2.078237 6.801019 8.879254 0
 2.078204 7.001676 9.079880 0
 2.078452 7.201922 9.280372 0
 2.079786 7.400774 9.480556 0
 2.083716 7.597122 9.680836 0
 2.078538 7.767920 9.846450 0
 2.174426 7.914770 10.089194 0
 2.383395 7.908900 10.292292 0
 2.592511 7.912008 10.504526 0
 2.797459 7.915435 10.712910 0
 2.999648 7.918645 10.918311 0
 3.200182 7.920352 11.120563 0
 3.400192 7.921098 11.321324 0
 3.600108 7.921392 11.521533 0
 3.800045 7.921496 11.721588 0
 2.251669 4.499996 6.751691 0
 2.251667 4.699999 6.951691 0
 2.251666 4.900000 7.151693 0
 2.251666 5.100000 7.351690 0
 2.251666 5.300000 7.551691 0
 2.251666 5.500000 7.751685 0
 2.251665 5.700000 7.951681 0
 2.251654 5.900009 8.151673 0
 2.251617 6.100050 8.351672 0
 2.251531 6.300183 8.551718 0
 2.251385 6.500513 8.751899 0
 2.251218 6.701183 8.952408 0
 2.251061 6.902292 9.153352 0
 2.250695 7.103502 9.354194 0
 2.250006 7.303535 9.553540 0
 2.250219 7.500392 9.750612 0
 2.266146 7.714409 9.980556 0
 2.489129 7.730742 10.219874 0
 2.696465 7.733715 10.430191 0
 2.900723 7.741913 10.642652 0
 3.101047 7.745561 10.846626 0
 3.300744 7.747126 11.047893 0
 3.500437 7.747838 11.248304 0
 3.700216 7.748157 11.448417 0
 3.900084 7.748278 11.648405 0
 2.424877 4.599992 7.024894 0
 2.424872 4.799998 7.224897 0
 2.424871 5.000000 7.424896 0
 2.424871 5.200000 7.624890 0
 2.424873 5.400000 7.824892 0
 2.424874 5.600000 8.024893 0
 2.424864 5.800005 8.224879 0
 2.424814 6.000040 8.424861 0
 2.424676 6.200160 8.624837 0
 2.424412 6.400469 8.824884 0
 2.424063 6.601118 9.025183 0
 2.423835 6.802324 9.226161 0
 2.423895 7.004465 9.428366 0
 2.422534 7.206843 9.629378 0
 2.418560 7.406425 9.824988 0
 2.403279 7.577728 9.981011 0
 2.592106 7.533823 10.125935 0
 2.806262 7.564362 10.370641 0
 3.003457 7.570261 10.573732 0
 3.202073 7.572492 10.774592 0
 3.401317 7.573784 10.975129 0
 3.600752 7.574581 11.175370 0
 3.800338 7.574939 11.375318 0
 2.424893 4.399971 6.824886 0
 2.598115 4.499947 7.098086 0
 2.598088 4.699982 7.298094 0
 2.598079 4.899995 7.498095 0
 2.598078 5.099999 7.698101 0
 2.598082 5.300001 7.898099 0
 2.598092 5.500003 8.098113 0
 2.598095 5.700013 8.298120 0
 2.598049 5.900046 8.498100 0
 2.597872 6.100151 8.698028 0
 2.597476 6.300423 8.897908 0
 2.596818 6.500985 9.097805 0
 2.596102 6.701903 9.298012 0
 2.596188 6.903456 9.499652 0
 2.598819 7.108148 9.706978 0
 2.593208 7.313585 9.906799 0
 2.737675 7.405842 10.143530 0
 2.907501 7.396818 10.304337 0
 3.104120 7.397239 10.501384 0
 3.303066 7.398692 10.701785 0
 3.502099 7.400577 10.902709 0
 3.701054 7.401469 11.102569 0
 2.771350 4.599888 7.371258 0
 2.771303 4.799959 7.571282 0
 2.771289 4.999989 7.771299 0
 2.771296 5.200000 7.971315 0
 2.771325 5.400011 8.171354 0
 2.771370 5.600039 8.371428 0
 2.771375 5.800104 8.571492 0
 2.771208 6.000234 8.771451 0
 2.770708 6.200493 8.971213 0
 2.769780 6.401011 9.170794 0
 2.768332 6.601799 9.370136 0
 2.766730 6.802329 9.569064 0
 2.767443 7.001482 9.768933 0
 2.789770 7.217824 10.007605 0
 3.004847 7.222243 10.227103 0
 3.205392 7.220417 10.425827 0
 3.405137 7.225986 10.631149 0
 2.944603 4.699786 7.644412 0
 2.944527 4.899924 7.844472 0
 2.944517 5.099982 8.044521 0
 2.944571 5.300014 8.244603 0
 2.944699 5.500071 8.444784 0
 2.944854 5.700213 8.645078 0
 2.944842 5.900488 8.845339 0
 2.944321 6.100876 9.045206 0
 2.943111 6.301359 9.244481 0
 2.941442 6.502273 9.443720 0
 2.938346 6.703360 9.641715 0
 2.933628 6.902309 9.835948 0
 2.919777 7.074007 9.993793 0
 3.103961 7.025118 10.129094 0
 3.312979 7.051863 10.364861 0
 3.506199 7.055682 10.561911 0
 3.117883 4.799658 7.917564 0
 3.117774 4.999887 8.117682 0
 3.117818 5.199984 8.317822 0
 3.118045 5.400070 8.518134 0
 3.118476 5.600294 8.718788 0
 3.118910 5.800822 8.919747 0
 3.118761 6.001706 9.120481 0
 3.117218 6.202582 9.319814 0
 3.114595 6.402964 9.517570 0
 3.113686 6.605107 9.718805 0
 3.105796 6.807573 9.913383 0
 3.246566 6.896933 10.143519 0
 3.411945 6.887214 10.299180 0
 3.291190 4.899559 8.190769 0
 3.291081 5.099869 8.390971 0
 3.291326 5.300003 8.591346 0
 3.292045 5.500215 8.792280 0
 3.293254 5.700898 8.994171 0
 3.294283 5.902485 9.196786 0
 3.293627 6.104989 9.398631 0
 3.288837 6.306361 9.595214 0
 3.282647 6.503179 9.785837 0
 3.298705 6.713931 10.012651 0
 3.504291 6.721057 10.225368 0
 3.464505 4.999568 8.464093 0
 3.464505 5.199877 8.664404 0
 3.465260 5.399986 8.865267 0
 3.467137 5.600390 9.067545 0
 3.470250 5.802162 9.272435 0
 3.472327 6.006245 9.478591 0
 3.471079 6.213562 9.684661 0
 3.453721 6.414768 9.868508 0
 3.425761 6.579841 10.005619 0
 3.588941 6.549791 10.138756 0
 3.664689 6.340184 10.004899 0
 1 2 3 
 3 4 5 
 5 6 7 
 7 8 9 
 9 10 11 
 11 12 13 
 14 13 15 
 16 17 14 
 18 19 17 
 20 21 19 
 22 23 21 
 24 25 23 
 26 27 25 
 28 29 27 
 30 31 29 
 32 33 31 
 34 35 33 
 36 37 35 
 38 39 37 
 40 41 39 
 42 43 41 
 44 45 43 
 46 47 45 
 48 49 47 
 50 51 49 
 52 53 51 
 54 55 53 
 56 57 55 
 58 59 57 
 60 61 59 
 61 62 63 
 62 64 63 
 64 65 66 
 66 67 68 
 68 69 70 
 70 71 72 
 72 73 74 
 74 75 76 
 76 77 78 
 78 79 80 
 80 81 82 
 82 83 84 
 84 85 86 
 86 87 88 
 88 89 90 
 90 91 92 
 92 93 94 
 94 95 96 
 96 97 98 
 3 2 4 
 5 4 6 
 7 6 8 
 9 8 10 
 11 10 12 
 15 13 12 
 15 16 14 
 16 18 17 
 18 20 19 
 20 22 21 
 22 24 23 
 24 26 25 
 26 28 27 
 28 30 29 
 30 32 31 
 32 34 33 
 34 36 35 
 36 38 37 
 38 40 39 
 40 42 41 
 42 44 43 
 44 46 45 
 46 48 47 
 48 50 49 
 50 52 51 
 52 54 53 
 54 56 55 
 56 58 57 
 58 60 59 
 99 61 60 
 62 61 99 
 64 62 99 
 65 67 66 
 64 99 65 
 67 69 68 
 69 71 70 
 71 73 72 
 73 75 74 
 75 77 76 
 77 79 78 
 79 81 80 
 81 83 82 
 83 85 84 
 85 87 86 
 87 89 88 
 89 91 90 
 91 93 92 
 93 95 94 
 95 97 96 
 2 100 4 
 4 101 6 
 6 102 8 
 8 103 10 
 10 104 12 
 15 12 105 
 16 15 106 
 18 16 107 
 20 18 108 
 22 20 109 
 24 22 110 
 26 24 111 
 28 26 112 
 30 28 113 
 32 30 114 
 34 32 115 
 36 34 116 
 38 36 117 
 40 38 118 
 42 40 119 
 44 42 120 
 46 44 121 
 48 46 122 
 50 48 123 
 52 50 124 
 54 52 125 
 56 54 126 
 58 56 127 
 60 58 128 
 60 65 99 
 128 67 65 
 67 129 69 
 69 130 71 
 71 131 73 
 73 132 75 
 75 133 77 
 134 79 77 
 79 135 81 
 81 136 83 
 83 137 85 
 85 138 87 
 87 139 89 
 89 140 91 
 91 141 93 
 93 142 95 
 4 100 101 
 6 101 102 
 8 102 103 
 10 103 104 
 105 12 104 
 106 15 105 
 107 16 106 
 108 18 107 
 109 20 108 
 110 22 109 
 111 24 110 
 112 26 111 
 113 28 112 
 114 30 113 
 115 32 114 
 116 34 115 
 117 36 116 
 118 38 117 
 119 40 118 
 120 42 119 
 121 44 120 
 122 46 121 
 123 48 122 
 124 50 123 
 125 52 124 
 126 54 125 
 127 56 126 
 128 58 127 
 60 128 65 
 129 67 128 
 129 130 69 
 130 131 71 
 131 132 73 
 132 133 75 
 133 134 77 
 135 79 134 
 135 136 81 
 136 137 83 
 137 138 85 
 138 139 87 
 139 140 89 
 140 141 91 
 141 142 93 
 101 100 143 
 102 101 144 
 103 102 145 
 104 103 146 
 147 105 104 
 106 105 148 
 107 106 149 
 108 107 150 
 109 108 151 
 110 109 152 
 111 110 153 
 112 111 154 
 113 112 155 
 114 113 156 
 115 114 157 
 116 115 158 
 117 116 159 
 118 117 160 
 119 118 161 
 119 162 120 
 121 120 163 
 122 121 164 
 123 122 165 
 124 123 166 
 125 124 167 
 126 125 168 
 169 127 126 
 128 127 170 
 128 170 129 
 129 171 130 
 130 172 131 
 131 173 132 
 132 174 133 
 133 175 134 
 134 176 135 
 135 177 136 
 178 137 136 
 137 179 138 
 138 180 139 
 139 181 140 
 140 182 141 
 141 183 142 
 144 101 143 
 145 102 144 
 146 103 145 
 146 147 104 
 148 105 147 
 149 106 148 
 150 107 149 
 151 108 150 
 152 109 151 
 153 110 152 
 154 111 153 
 155 112 154 
 156 113 155 
 157 114 156 
 158 115 157 
 159 116 158 
 160 117 159 
 161 118 160 
 119 161 162 
 163 120 162 
 164 121 163 
 165 122 164 
 166 123 165 
 167 124 166 
 168 125 167 
 168 169 126 
 170 127 169 
 129 170 171 
 171 172 130 
 172 173 131 
 173 174 132 
 174 175 133 
 175 176 134 
 176 177 135 
 177 178 136 
 179 137 178 
 179 180 138 
 180 181 139 
 181 182 140 
 182 183 141 
 183 184 142 
 185 144 143 
 186 145 144 
 187 146 145 
 147 146 188 
 148 147 189 
 149 148 190 
 150 149 191 
 151 150 192 
 152 151 193 
 153 152 194 
 154 153 195 
 155 154 196 
 156 155 197 
 157 156 198 
 158 157 199 
 159 158 200 
 159 201 160 
 161 160 202 
 162 161 203 
 163 162 204 
 164 163 205 
 165 164 206 
 166 165 207 
 167 166 208 
 168 167 209 
 169 168 210 
 171 170 169 
 171 211 172 
 172 212 173 
 213 174 173 
 174 214 175 
 175 215 176 
 176 216 177 
 217 178 177 
 178 218 179 
 179 219 180 
 220 181 180 
 181 221 182 
 222 183 182 
 183 223 184 
 185 186 144 
 186 187 145 
 188 146 187 
 189 147 188 
 190 148 189 
 191 149 190 
 192 150 191 
 193 151 192 
 194 152 193 
 195 153 194 
 196 154 195 
 197 155 196 
 198 156 197 
 199 157 198 
 200 158 199 
 159 200 201 
 202 160 201 
 203 161 202 
 204 162 203 
 205 163 204 
 206 164 205 
 207 165 206 
 208 166 207 
 209 167 208 
 210 168 209 
 171 169 210 
 211 212 172 
 171 210 211 
 212 213 173 
 214 174 213 
 214 215 175 
 215 216 176 
 216 217 177 
 218 178 217 
 218 219 179 
 219 220 180 
 221 181 220 
 221 222 182 
 223 183 222 
 223 224 184 
 186 185 225 
 187 186 226 
 188 187 227 
 189 188 228 
 190 189 229 
 191 190 230 
 192 191 231 
 193 192 232 
 194 193 233 
 195 194 234 
 195 235 196 
 197 196 236 
 197 237 198 
 198 238 199 
 239 200 199 
 201 200 240 
 201 241 202 
 203 202 242 
 204 203 243 
 205 204 244 
 206 205 245 
 206 246 207 
 207 247 208 
 209 208 248 
 210 209 249 
 249 212 211 
 210 249 211 
 212 250 213 
 251 214 213 
 252 215 214 
 215 253 216 
 216 254 217 
 217 255 218 
 218 256 219 
 257 220 219 
 220 258 221 
 221 259 222 
 260 223 222 
 261 224 223 
 226 186 225 
 227 187 226 
 228 188 227 
 229 189 228 
 230 190 229 
 231 191 230 
 232 192 231 
 233 193 232 
 234 194 233 
 195 234 235 
 236 196 235 
 197 236 237 
 198 237 238 
 238 239 199 
 240 200 239 
 201 240 241 
 242 202 241 
 243 203 242 
 244 204 243 
 245 205 244 
 206 245 246 
 207 246 247 
 248 208 247 
 249 209 248 
 250 212 249 
 250 251 213 
 252 214 251 
 253 215 252 
 253 254 216 
 254 255 217 
 255 256 218 
 256 257 219 
 258 220 257 
 258 259 221 
 259 260 222 
 261 223 260 
 262 224 261 
 226 225 263 
 264 227 226 
 265 228 227 
 229 228 266 
 230 229 267 
 230 268 231 
 231 269 232 
 270 233 232 
 233 271 234 
 234 272 235 
 236 235 273 
 237 236 274 
 238 237 275 
 238 276 239 
 240 239 277 
 241 240 278 
 242 241 279 
 243 242 280 
 244 243 281 
 244 282 245 
 245 283 246 
 246 284 247 
 248 247 285 
 249 248 286 
 249 286 250 
 250 287 251 
 288 252 251 
 253 252 289 
 290 254 253 
 254 291 255 
 255 292 256 
 256 293 257 
 257 294 258 
 258 295 259 
 296 260 259 
 260 297 261 
 261 298 262 
 263 225 299 
 263 264 226 
 264 265 227 
 266 228 265 
 267 229 266 
 230 267 268 
 231 268 269 
 269 270 232 
 233 270 271 
 234 271 272 
 273 235 272 
 274 236 273 
 275 237 274 
 238 275 276 
 277 239 276 
 278 240 277 
 279 241 278 
 280 242 279 
 281 243 280 
 244 281 282 
 245 282 283 
 246 283 284 
 285 247 284 
 286 248 285 
 250 286 287 
 287 288 251 
 289 252 288 
 253 289 290 
 291 254 290 
 291 292 255 
 292 293 256 
 293 294 257 
 294 295 258 
 295 296 259 
 297 260 296 
 297 298 261 
 263 299 300 
 264 263 301 
 265 264 302 
 266 265 303 
 267 266 304 
 267 305 268 
 268 306 269 
 307 270 269 
 271 270 308 
 272 271 309 
 273 272 310 
 274 273 311 
 275 274 312 
 313 276 275 
 277 276 314 
 315 278 277 
 279 278 316 
 280 279 317 
 280 318 281 
 319 282 281 
 282 320 283 
 283 321 284 
 322 285 284 
 286 285 287 
 287 323 288 
 324 289 288 
 290 289 325 
 291 290 326 
 327 292 291 
 292 328 293 
 329 294 293 
 294 330 295 
 295 331 296 
 296 332 297 
 297 333 298 
 300 299 334 
 301 263 300 
 302 264 301 
 303 265 302 
 304 266 303 
 267 304 305 
 268 305 306 
 306 307 269 
 308 270 307 
 309 271 308 
 310 272 309 
 311 273 310 
 312 274 311 
 312 313 275 
 314 276 313 
 314 315 277 
 316 278 315 
 317 279 316 
 280 317 318 
 318 319 281 
 282 319 320 
 283 320 321 
 321 322 284 
 323 285 322 
 287 285 323 
 323 324 288 
 325 289 324 
 290 325 326 
 291 326 327 
 328 292 327 
 328 329 293 
 330 294 329 
 330 331 295 
 331 332 296 
 332 333 297 
 333 335 298 
 300 334 336 
 337 301 300 
 338 302 301 
 339 303 302 
 340 304 303 
 341 305 304 
 306 305 342 
 307 306 343 
 308 307 344 
 345 309 308 
 346 310 309 
 347 311 310 
 312 311 348 
 313 312 349 
 314 313 350 
 315 314 351 
 352 316 315 
 316 353 317 
 354 318 317 
 355 319 318 
 356 320 319 
 320 357 321 
 322 321 358 
 322 358 323 
 358 324 323 
 359 325 324 
 326 325 360 
 327 326 361 
 328 327 362 
 363 329 328 
 329 364 330 
 330 365 331 
 331 366 332 
 332 367 333 
 333 368 335 
 336 334 369 
 336 337 300 
 337 338 301 
 338 339 302 
 339 340 303 
 340 341 304 
 342 305 341 
 343 306 342 
 344 307 343 
 344 345 308 
 345 346 309 
 346 347 310 
 348 311 347 
 349 312 348 
 350 313 349 
 351 314 350 
 351 352 315 
 316 352 353 
 353 354 317 
 354 355 318 
 355 356 319 
 320 356 357 
 358 321 357 
 359 324 358 
 360 325 359 
 326 360 361 
 327 361 362 
 328 362 363 
 364 329 363 
 364 365 330 
 365 366 331 
 366 367 332 
 367 368 333 
 369 370 336 
 371 337 336 
 372 338 337 
 373 339 338 
 374 340 339 
 341 340 375 
 376 342 341 
 377 343 342 
 378 344 343 
 379 345 344 
 346 345 380 
 347 346 381 
 348 347 382 
 349 348 383 
 384 350 349 
 350 385 351 
 351 386 352 
 352 387 353 
 388 354 353 
 389 355 354 
 390 356 355 
 356 391 357 
 358 357 392 
 358 392 359 
 393 360 359 
 361 360 394 
 361 395 362 
 363 362 396 
 364 363 397 
 398 365 364 
 399 366 365 
 366 400 367 
 367 401 368 
 369 402 370 
 370 371 336 
 371 372 337 
 372 373 338 
 373 374 339 
 375 340 374 
 375 376 341 
 376 377 342 
 377 378 343 
 378 379 344 
 380 345 379 
 381 346 380 
 382 347 381 
 383 348 382 
 383 384 349 
 350 384 385 
 351 385 386 
 352 386 387 
 387 388 353 
 388 389 354 
 389 390 355 
 356 390 391 
 391 392 357 
 392 393 359 
 394 360 393 
 361 394 395 
 395 396 362 
 363 396 397 
 364 397 398 
 399 365 398 
 400 366 399 
 400 401 367 
 401 403 368 
 402 404 370 
 370 405 371 
 371 406 372 
 372 407 373 
 373 408 374 
 375 374 409 
 410 376 375 
 411 377 376 
 378 377 412 
 379 378 413 
 380 379 414 
 415 381 380 
 382 381 416 
 383 382 417 
 384 383 418 
 384 419 385 
 385 420 386 
 421 387 386 
 422 388 387 
 423 389 388 
 424 390 389 
 390 425 391 
 391 393 392 
 425 394 393 
 395 394 426 
 395 427 396 
 396 428 397 
 398 397 429 
 399 398 430 
 399 431 400 
 432 401 400 
 433 403 401 
 370 404 405 
 371 405 406 
 372 406 407 
 373 407 408 
 409 374 408 
 409 410 375 
 410 411 376 
 412 377 411 
 413 378 412 
 414 379 413 
 414 415 380 
 416 381 415 
 417 382 416 
 418 383 417 
 384 418 419 
 385 419 420 
 420 421 386 
 421 422 387 
 422 423 388 
 423 424 389 
 390 424 425 
 425 393 391 
 426 394 425 
 395 426 427 
 427 428 396 
 428 429 397 
 398 429 430 
 399 430 431 
 431 432 400 
 433 401 432 
 434 403 433 
 435 405 404 
 436 406 405 
 406 437 407 
 407 438 408 
 408 439 409 
 409 440 410 
 411 410 441 
 411 442 412 
 413 412 443 
 414 413 444 
 415 414 445 
 415 446 416 
 417 416 447 
 417 448 418 
 418 449 419 
 419 450 420 
 451 421 420 
 422 421 452 
 453 423 422 
 423 454 424 
 424 455 425 
 455 426 425 
 427 426 456 
 427 457 428 
 428 458 429 
 429 459 430 
 431 430 460 
 432 431 461 
 462 433 432 
 433 463 434 
 435 436 405 
 406 436 437 
 407 437 438 
 408 438 439 
 409 439 440 
 441 410 440 