TITLE      =  "2D FE Unstructured grid data" 
VARIABLES = "X", "Y", "U", "Dom" 
ZONE T="P1", F=FEPOINT, N= 1475 E= 2784  ET=TRIANGLE 
 6.701519 1.785672 8.487161 3
 6.879232 1.891371 8.770576 3
 6.723532 1.909799 8.633299 3
 6.805418 1.728012 8.533401 3
 6.567963 2.290683 8.858605 3
 6.680757 2.396833 9.077560 3
 6.582386 2.496284 9.078634 3
 6.484631 2.419052 8.903649 3
 5.257092 4.951127 10.208201 3
 5.213462 4.793371 10.006816 3
 5.330429 4.858052 10.188469 3
 6.442039 2.093051 8.535048 3
 6.397256 1.985062 8.382278 3
 6.536678 1.996341 8.532988 3
 7.164596 2.778845 9.943418 3
 7.262382 2.722581 9.984943 3
 7.201928 2.902174 10.104082 3
 5.151765 4.907310 10.059062 3
 7.342909 2.799273 10.142167 3
 6.542043 2.143331 8.685338 3
 8.339095 1.891838 10.230917 3
 8.250751 1.812134 10.062864 3
 8.411804 1.768777 10.180571 3
 5.075511 3.255838 8.331302 3
 4.968703 3.179825 8.148476 3
 5.122739 3.104407 8.227107 3
 8.284565 1.715435 9.999984 3
 7.959190 1.754323 9.713490 3
 7.802344 1.756332 9.558663 3
 7.856203 1.616465 9.472640 3
 9.678115 2.511569 12.189676 3
 9.574879 2.350617 11.925486 3
 9.721053 2.365102 12.086157 3
 4.814559 2.925099 7.739610 3
 4.701535 3.049531 7.751019 3
 4.676769 2.899004 7.575722 3
 6.048975 2.539656 8.588583 3
 6.016453 2.402017 8.418430 3
 6.128496 2.422999 8.551454 3
 6.849532 3.776139 10.625644 3
 6.800718 3.652420 10.453118 3
 6.911029 3.660890 10.571890 3
 7.498225 2.583424 10.081627 3
 7.622765 2.702036 10.324786 3
 7.500171 2.698773 10.198920 3
 7.443472 1.942950 9.386398 3
 7.613626 1.986608 9.600215 3
 7.510754 2.063014 9.573741 3
 9.342519 2.234407 11.576916 3
 9.423470 2.119010 11.542478 3
 9.476007 2.231205 11.707208 3
 7.552849 0.916855 8.469688 3
 7.494326 1.025363 8.519668 3
 7.374181 0.926226 8.300387 3
 6.810746 4.185935 10.996655 3
 6.771570 4.326343 11.097886 3
 6.666837 4.183290 10.850101 3
 4.970822 4.493345 9.464142 3
 5.151458 4.531467 9.682901 3
 5.054547 4.627533 9.682056 3
 6.692447 1.608083 8.300501 3
 5.697073 2.217800 7.914825 3
 5.866033 2.207757 8.073745 3
 5.789660 2.318496 8.108111 3
 6.642293 4.299617 10.941886 3
 7.068633 3.034311 10.102915 3
 7.052530 2.925088 9.977598 3
 6.070206 3.682619 9.752797 3
 6.214737 3.731762 9.946472 3
 6.058446 3.837669 9.896087 3
 6.213589 3.874769 10.088335 3
 9.739560 3.850509 13.590051 3
 9.820748 3.979503 13.800247 3
 9.701102 4.005759 13.706843 3
 8.273797 1.127248 9.401036 3
 8.220457 1.287513 9.507957 3
 8.120080 1.172185 9.292254 3
 4.845317 3.097768 7.943039 3
 5.007074 3.044911 8.051939 3
 9.252457 3.526508 12.778947 3
 9.189052 3.630861 12.819889 3
 9.111339 3.475663 12.586976 3
 9.077063 2.646301 11.723358 3
 9.210153 2.670109 11.880246 3
 9.084210 2.774578 11.858775 3
 9.198662 1.198950 10.397612 3
 9.071326 1.130480 10.201814 3
 9.183449 1.047596 10.231046 3
 9.204548 2.809502 12.014038 3
 8.475585 2.287620 10.763195 3
 8.630102 2.254541 10.884631 3
 8.581976 2.361500 10.943464 3
 7.438138 0.557798 7.995921 3
 7.316076 0.631051 7.947111 3
 7.295281 0.481153 7.776423 3
 5.056756 4.851300 9.908047 3
 5.088861 4.732314 9.821153 3
 7.523554 1.866925 9.390449 3
 7.731541 1.104297 8.835813 3
 7.749978 1.235802 8.985749 3
 7.601613 1.214993 8.816584 3
 4.243496 4.933706 9.177209 3
 4.234445 4.810615 9.045062 3
 4.356071 4.907642 9.263715 3
 8.478637 0.790780 9.269409 3
 8.313864 0.866223 9.180083 3
 8.331158 0.720848 9.051993 3
 8.504636 2.169859 10.674493 3
 5.507239 3.685842 9.193039 3
 5.535018 3.555948 9.090924 3
 5.619704 3.700251 9.319914 3
 9.087513 3.339667 12.427156 3
 9.026529 3.270177 12.296694 3
 9.144161 3.207373 12.351513 3
 9.543455 2.810024 12.353477 3
 9.543092 2.953604 12.496689 3
 9.423470 2.865226 12.288688 3
 5.682586 3.599695 9.282247 3
 7.219480 2.344383 9.563835 3
 7.363740 2.410020 9.773743 3
 7.257778 2.463959 9.721713 3
 6.184692 2.536127 8.720781 3
 5.707364 1.638875 7.346196 3
 5.555358 1.705302 7.260616 3
 5.626503 1.565697 7.192160 3
 4.499614 3.585040 8.084623 3
 4.366788 3.584994 7.951750 3
 4.446567 3.471965 7.918491 3
 6.505392 2.912363 9.417721 3
 6.463891 3.083112 9.546968 3
 6.394594 2.906682 9.301234 3
 6.322877 2.991369 9.314207 3
 8.474099 1.616217 10.090311 3
 8.340574 1.625544 9.966105 3
 7.312423 2.260671 9.573067 3
 10.000000 3.472222 13.472222 3
 10.000000 3.611111 13.611111 3
 9.854188 3.516792 13.370975 3
 4.334121 3.451462 7.785544 3
 4.390341 4.809024 9.199361 3
 6.953347 1.488441 8.441761 3
 6.831847 1.586057 8.417875 3
 6.827979 1.453654 8.281603 3
 7.486001 0.809553 8.295539 3
 5.103247 4.421588 9.524815 3
 6.963366 1.048810 8.012156 3
 6.884698 0.923605 7.808282 3
 7.042629 0.903632 7.946240 3
 7.691458 1.625557 9.316984 3
 9.444846 1.334896 10.779743 3
 9.589488 1.426591 11.016078 3
 9.434002 1.466554 10.900552 3
 9.892745 3.641623 13.534356 3
 7.587032 1.102500 8.689512 3
 6.956197 1.599887 8.556055 3
 6.913921 1.734840 8.648729 3
 7.173300 3.083775 10.257053 3
 8.917900 1.739587 10.657477 3
 8.872846 1.871586 10.744431 3
 8.745080 1.755492 10.500567 3
 8.729655 1.919936 10.649581 3
 4.741090 4.800401 9.541480 3
 4.777213 4.665328 9.442527 3
 4.865252 4.762175 9.627410 3
 9.789246 2.448795 12.238037 3
 4.639359 4.733263 9.372616 3
 9.792582 4.131754 13.924329 3
 5.644777 1.756792 7.401528 3
 10.000000 1.527778 11.527778 3
 10.000000 1.666667 11.666667 3
 9.835932 1.589848 11.425780 3
 8.333333 0.000000 8.333333 3
 8.472222 0.000000 8.472222 3
 8.423933 0.166367 8.590299 3
 9.182967 3.350452 12.533404 3
 6.008340 2.139752 8.148052 3
 6.117687 2.149634 8.267277 3
 6.089433 2.274208 8.363599 3
 6.361014 1.300424 7.661408 3
 6.245265 1.175609 7.420845 3
 6.418029 1.163651 7.581655 3
 6.311475 1.063067 7.374515 3
 5.981593 2.283386 8.264933 3
 9.421269 2.339659 11.760926 3
 6.690095 3.368343 10.058411 3
 6.610770 3.517084 10.127823 3
 6.571198 3.370148 9.941320 3
 6.375421 0.217663 6.593075 3
 6.491006 0.285487 6.776484 3
 6.309723 0.352951 6.662663 3
 7.986232 1.946766 9.932979 3
 8.040218 1.849507 9.889712 3
 8.114106 1.990244 10.104338 3
 5.343924 2.289512 7.633384 3
 5.340167 2.452921 7.793039 3
 5.228862 2.401259 7.630072 3
 6.771995 3.451471 10.223441 3
 9.610342 1.305229 10.915576 3
 6.534350 1.620327 8.154645 3
 6.507941 1.506101 8.014006 3
 6.676695 1.483973 8.160645 3
 8.175214 0.985853 9.161053 3
 8.030745 1.035779 9.066510 3
 9.788682 0.868734 10.657421 3
 9.713545 0.964521 10.678068 3
 9.630043 0.812346 10.442388 3
 5.832567 1.649027 7.481557 3
 5.784334 1.788280 7.572575 3
 9.362967 1.582600 10.945569 3
 9.205578 1.586031 10.791605 3
 9.297521 1.444892 10.742414 3
 9.132903 1.455321 10.588221 3
 8.578965 1.700395 10.279357 3
 8.587470 1.848912 10.436369 3
 6.456118 0.426628 6.882734 3
 10.000000 1.805556 11.805556 3
 9.864987 1.903467 11.768453 3
 9.873762 1.734081 11.607843 3
 8.194445 0.000000 8.194445 3
 8.260237 0.127251 8.387493 3
 8.090914 0.133506 8.224423 3
 5.977030 3.962249 9.939248 3
 5.876711 3.891672 9.768360 3
 6.668028 0.549795 7.217808 3
 6.552711 0.526996 7.079690 3
 6.668671 0.402044 7.070704 3
 7.620184 2.556905 10.177073 3
 8.801836 1.218172 10.020003 3
 8.738236 1.350614 10.088848 3
 8.659156 1.181875 9.841038 3
 4.473174 3.256110 7.729240 3
 4.567456 3.148981 7.716395 3
 4.605954 3.329224 7.935138 3
 4.706223 3.210999 7.917179 3
 9.429109 2.581689 12.010792 3
 9.342649 2.727676 12.070320 3
 9.300473 2.592718 11.893182 3
 5.433549 2.599946 8.033449 3
 5.274381 2.564524 7.838854 3
 7.209900 3.518409 10.728291 3
 7.147572 3.390509 10.538057 3
 7.257548 3.368222 10.625752 3
 5.214097 3.331745 8.545796 3
 5.065293 3.368719 8.433969 3
 3.965637 4.859202 8.824851 3
 4.098414 4.774844 8.873257 3
 4.116724 4.919291 9.036026 3
 5.846843 3.183881 9.030684 3
 5.884804 3.080605 8.965362 3
 5.940642 3.220175 9.160782 3
 5.957494 3.764695 9.722155 3
 9.331212 0.311474 9.642686 3
 9.391139 0.467381 9.858522 3
 9.270160 0.442229 9.712389 3
 5.345166 4.081958 9.427094 3
 5.223313 4.165204 9.388486 3
 5.225334 4.010153 9.235455 3
 5.087319 4.059354 9.146639 3
 8.289977 3.084625 11.374582 3
 8.203995 3.214273 11.418248 3
 8.182261 3.044488 11.226735 3
 7.491823 1.669027 9.160819 3
 7.420715 1.784334 9.205024 3
 7.342836 1.639057 8.981863 3
 6.805555 0.000000 6.805555 3
 6.780949 0.168758 6.949701 3
 6.669086 0.122512 6.791588 3
 7.441488 1.573872 9.015332 3
 7.734658 2.641909 10.376556 3
 5.003970 3.950645 8.954579 3
 4.940084 4.025068 8.965123 3
 8.457720 1.950579 10.408291 3
 5.137704 2.516743 7.654397 3
 5.070802 2.638387 7.709141 3
 4.988203 2.540515 7.528670 3
 7.085173 2.293885 9.379028 3
 7.198239 2.211733 9.409945 3
 7.098757 2.157671 9.256405 3
 4.666161 4.606328 9.272465 3
 8.611111 0.000000 8.611111 3
 8.713051 0.149972 8.863017 3
 8.541667 0.099357 8.641027 3
 10.000000 1.388889 11.388889 3
 9.897661 1.451688 11.349351 3
 9.849624 1.291612 11.141241 3
 6.919063 1.345560 8.264594 3
 7.084176 1.397750 8.481898 3
 7.033436 1.283168 8.316575 3
 6.506629 3.889209 10.395816 3
 6.371160 3.918404 10.289538 3
 6.453152 3.767231 10.220360 3
 7.753994 1.900319 9.654298 3
 7.777062 2.059184 9.836223 3
 6.967904 3.287072 10.254951 3
 7.032102 3.373044 10.405132 3
 6.923911 3.405792 10.329672 3
 7.020362 3.486349 10.506691 3
 6.206203 4.558007 10.764183 3
 6.139965 4.456416 10.596345 3
 6.238244 4.398286 10.636500 3
 9.668290 1.618358 11.286644 3
 9.513515 1.559231 11.072744 3
 9.691791 1.495906 11.187697 3
 7.471699 0.439762 7.911452 3
 7.393651 0.354021 7.747664 3
 6.619639 1.893718 8.513325 3
 6.669048 2.050785 8.719799 3
 8.980727 1.969311 10.950032 3
 9.107937 2.061746 11.169676 3
 8.974391 2.102736 11.077117 3
 6.318694 4.601766 10.920426 3
 6.332431 4.471969 10.804369 3
 6.436944 4.559677 10.996588 3
 8.387761 0.339635 8.727396 3
 8.240078 0.418746 8.658825 3
 8.276791 0.268489 8.545276 3
 10.000000 0.833333 10.833333 3
 9.878537 0.952749 10.831283 3
 9.881005 0.771428 10.652432 3
 9.166667 0.000000 9.166667 3
 9.228572 0.118995 9.347565 3
 9.047251 0.121463 9.168717 3
 8.461967 0.900401 9.362368 3
 9.570928 2.643228 12.214151 3
 9.666690 2.753694 12.420387 3
 6.124938 2.025252 8.150148 3
 6.055794 1.888699 7.944458 3
 6.204272 1.876331 8.080565 3
 7.330197 1.864834 9.194999 3
 5.997469 3.137192 9.134627 3
 8.512171 3.029562 11.541718 3
 8.501996 2.902117 11.404095 3
 8.635534 3.000477 11.635993 3
 9.482075 0.375573 9.857653 3
 5.782885 4.915845 10.698703 3
 5.613523 4.876764 10.490264 3
 5.711236 4.758887 10.470094 3
 4.979978 4.129759 9.109702 3
 8.312034 2.436220 10.748237 3
 8.406985 2.544760 10.951735 3
 8.237949 2.582546 10.820480 3
 7.660341 0.578731 8.239061 3
 7.567696 0.509109 8.076796 3
 7.710315 0.439928 8.150231 3
 7.136683 0.529082 7.665758 3
 7.205846 0.625018 7.830849 3
 8.632577 2.858719 11.491279 3
 6.453895 2.610102 9.063961 3
 6.349832 2.687730 9.037522 3
 6.323233 2.547328 8.870526 3
 6.232348 2.645741 8.878053 3
 8.669917 0.579927 9.249844 3
 8.757948 0.693155 9.451107 3
 8.605878 0.699880 9.305756 3
 8.874151 2.322065 11.196213 3
 8.764855 2.203482 10.968329 3
 8.916048 2.203379 11.119420 3
 9.287970 3.215673 12.503633 3
 8.461940 3.408179 11.870101 3
 8.602221 3.469974 12.072180 3
 8.437001 3.520203 11.957189 3
 5.238379 2.222766 7.461094 3
 5.530592 1.588824 7.119376 3
 6.458221 2.769819 9.228003 3
 6.590697 2.811427 9.402091 3
 9.703095 1.224287 10.927383 3
 9.545672 1.202538 10.748210 3
 9.670074 1.086883 10.756953 3
 6.733642 3.740400 10.474022 3
 8.419788 1.204282 9.624070 3
 8.332795 1.276246 9.609028 3
 5.589419 4.442449 10.031842 3
 5.690715 4.356841 10.047528 3
 5.711939 4.496269 10.208178 3
 9.331159 3.351627 12.682773 3
 8.841307 1.604082 10.445383 3
 8.569086 0.210360 8.779448 3
 8.508806 0.309166 8.817968 3
 6.747306 3.560399 10.307676 3
 6.880623 3.544763 10.425366 3
 5.118882 3.475273 8.594116 3
 6.230560 1.344904 7.575432 3
 6.201416 1.471436 7.672819 3
 6.086552 1.410100 7.496618 3
 9.446910 0.269519 9.716428 3
 9.595981 0.268505 9.864477 3
 9.454902 3.848161 13.303043 3
 9.314283 3.848248 13.162501 3
 9.434791 3.702993 13.137761 3
 9.291065 3.714597 13.005637 3
 8.146174 1.859522 10.005680 3
 5.812953 4.400337 10.213264 3
 6.197185 1.710938 7.908087 3
 6.084925 1.777562 7.862449 3
 4.723909 5.068506 9.792411 3
 4.725826 4.925068 9.650892 3
 4.847394 4.979242 9.826629 3
 8.761953 0.916679 9.678637 3
 8.900838 0.965835 9.866680 3
 8.822564 1.031494 9.854059 3
 8.740061 2.530812 11.270864 3
 8.666847 2.437385 11.104220 3
 8.841598 2.440845 11.282434 3
 7.639262 1.456599 9.095836 3
 7.763267 1.366998 9.130238 3
 7.753578 1.515011 9.268559 3
 7.003982 0.388354 7.392327 3
 7.133464 0.392585 7.526042 3
 7.012825 0.504763 7.517576 3
 7.919614 2.303614 10.223208 3
 7.874130 2.467033 10.341149 3
 7.794896 2.314073 10.108949 3
 7.725644 2.414804 10.140434 3
 8.742489 2.344617 11.087090 3
 4.694458 3.842130 8.536556 3
 4.748693 3.756030 8.504687 3
 4.857194 3.886184 8.743345 3
 9.192173 2.523767 11.715933 3
 4.935095 3.324694 8.259742 3
 5.745697 3.173218 8.918878 3
 5.735101 3.058170 8.793224 3
 10.000000 2.500000 12.500000 3
 10.000000 2.638889 12.638889 3
 9.843488 2.564197 12.407687 3
 6.712580 3.932482 10.645035 3
 6.708884 4.073019 10.781872 3
 6.595653 3.964163 10.559793 3
 7.949999 0.693922 8.643911 3
 8.057818 0.785259 8.843063 3
 7.934078 0.862031 8.796098 3
 8.652964 3.332888 11.985831 3
 8.745855 3.392673 12.138505 3
 6.561868 2.666827 9.228661 3
 4.854363 3.730528 8.584856 3
 6.555438 0.366973 6.922399 3
 6.130081 1.262278 7.392326 3
 7.588399 0.399238 7.987629 3
 6.315060 3.798978 10.114017 3
 7.007150 3.739095 10.746218 3
 8.101618 0.647294 8.748902 3
 9.438756 2.449300 11.888050 3
 8.432035 1.083317 9.515347 3
 9.510171 0.191461 9.701639 3
 9.188523 1.345006 10.533534 3
 6.929450 0.775722 7.705153 3
 6.801984 0.823573 7.625539 3
 6.788272 0.705521 7.493776 3
 8.024765 1.279948 9.304694 3
 7.894146 1.289960 9.184079 3
 7.976189 1.160414 9.136588 3
 8.920476 3.021576 11.942043 3
 8.855284 3.136485 11.991757 3
 8.782388 3.023703 11.806064 3
 8.719112 3.129190 11.848284 3
 9.449391 3.039363 12.488744 3
 8.917796 2.615546 11.533326 3
 9.044215 2.523352 11.567558 3
 5.944004 4.749156 10.693128 3
 5.838029 4.800569 10.638577 3
 5.821872 4.670084 10.491920 3
 9.172133 0.340190 9.512318 3
 8.902877 0.859163 9.762046 3
 5.458736 2.481935 7.940621 3
 5.155808 4.309731 9.465513 3
 5.021509 4.346021 9.367502 3
 5.072066 4.195681 9.267715 3
 6.136762 4.092844 10.229572 3
 6.245292 4.146565 10.391833 3
 6.110779 4.221756 10.332509 3
 6.244764 4.271516 10.516248 3
 8.103052 1.556893 9.659922 3
 8.175099 1.426256 9.601346 3
 8.266163 1.530432 9.796587 3
 7.171700 0.247466 7.419159 3
 7.302215 0.190436 7.492647 3
 7.275958 0.316941 7.592896 3
 7.809556 0.964260 8.773795 3
 7.810327 0.850372 8.660680 3
 9.884130 3.862222 13.746342 3
 7.107476 3.549114 10.656571 3
 8.014078 0.559529 8.573598 3
 5.546039 4.041147 9.587153 3
 5.645875 3.954549 9.600389 3
 5.657291 4.098102 9.755366 3
 5.915690 4.628152 10.543816 3
 7.310883 3.038144 10.349012 3
 7.393803 2.920684 10.314477 3
 7.442627 3.070481 10.513096 3
 7.204134 0.124253 7.328383 3
 5.889647 2.035367 7.924968 3
 9.587537 0.409535 9.997069 3
 8.750000 0.000000 8.750000 3
 10.000000 1.250000 11.250000 3
 5.458508 4.842330 10.300820 3
 5.566566 4.755843 10.322392 3
 9.902959 2.703294 12.606255 3
 9.655199 0.142591 9.797783 3
 9.735977 0.293416 10.029396 3
 8.865435 0.507339 9.372776 3
 9.008142 0.563142 9.571291 3
 8.853737 0.619008 9.472745 3
 3.989231 4.708849 8.698078 3
 8.104742 3.126991 11.231715 3
 9.803100 0.196901 9.999998 3
 5.677823 2.356534 8.034304 3
 3.894337 4.620393 8.514733 3
 4.011201 4.580757 8.591962 3
 8.838311 2.114829 10.953127 3
 9.788435 1.428417 11.216846 3
 7.660153 1.319150 8.979277 3
 6.584668 4.109902 10.694546 3
 8.018033 1.414853 9.432868 3
 8.393827 2.992672 11.386481 3
 8.366385 2.871074 11.237439 3
 5.014447 3.851910 8.866323 3
 5.157799 2.308057 7.465808 3
 4.991894 2.301419 7.293266 3
 5.106811 2.203736 7.310495 3
 7.209929 1.679876 8.889779 3
 7.221816 1.512943 8.734733 3
 7.110541 1.619870 8.730380 3
 5.430822 2.384359 7.815136 3
 9.089385 0.963276 10.052666 3
 7.638889 0.000000 7.638889 3
 7.777778 0.000000 7.777778 3
 7.724136 0.155138 7.879272 3
 4.905974 2.997900 7.903827 3
 7.670127 1.770020 9.440126 3
 7.569445 0.094249 7.663692 3
 7.518536 2.990162 10.508683 3
 9.595148 3.911410 13.506536 3
 5.929688 2.502023 8.431672 3
 5.965956 2.652368 8.618282 3
 5.839457 2.581542 8.420948 3
 9.805383 0.494141 10.299517 3
 9.708761 0.426389 10.135143 3
 9.861273 0.354120 10.215390 3
 5.382433 3.262294 8.644682 3
 5.349648 3.407403 8.757009 3
 5.069596 2.414073 7.483622 3
 8.138584 2.715771 10.854338 3
 8.073783 2.616538 10.690310 3
 9.661263 2.881736 12.542989 3
 6.033929 2.753751 8.787638 3
 6.050534 2.866902 8.917389 3
 5.894266 2.803605 8.697827 3
 6.422426 1.621216 8.043612 3
 6.284449 1.579454 7.863872 3
 6.390977 1.521575 7.912521 3
 9.587098 0.955972 10.543068 3
 6.676661 1.313509 7.990143 3
 6.777507 1.361396 8.138877 3
 4.097756 4.656532 8.754283 3
 8.469637 0.651486 9.121122 3
 5.944719 2.927681 8.872356 3
 6.350657 3.114302 9.464920 3
 6.621573 3.804765 10.426321 3
 6.669802 3.646270 10.316045 3
 5.404654 3.643694 9.048309 3
 6.012587 0.979377 6.991938 3
 5.989002 1.095738 7.084711 3
 5.884440 1.047806 6.932218 3
 6.331472 1.699374 8.030808 3
 8.516606 0.998214 9.514823 3
 8.661506 1.034647 9.696154 3
 8.562360 1.096392 9.658748 3
 8.581209 0.914497 9.495706 3
 5.899824 0.937686 6.837483 3
 7.949980 0.968231 8.918190 3
 9.697988 2.218618 11.916600 3
 9.586776 2.199703 11.786477 3
 8.693430 1.612268 10.305688 3
 8.933568 0.705132 9.638704 3
 5.176482 3.200482 8.376914 3
 6.086993 0.833166 6.920139 3
 6.152033 0.968888 7.120899 3
 5.017903 4.996035 10.013927 3
 4.928779 4.868985 9.797750 3
 10.000000 2.083333 12.083333 3
 10.000000 2.222222 12.222222 3
 9.869110 2.155257 12.024364 3
 5.846208 1.398244 7.244416 3
 5.911312 1.262849 7.174127 3
 5.969497 1.377423 7.346884 3
 9.700066 0.677595 10.377661 3
 9.550171 0.644156 10.194323 3
 9.701771 0.555341 10.257112 3
 9.589083 0.519273 10.108353 3
 9.538357 2.507281 12.045636 3
 8.576491 2.513322 11.089796 3
 8.642417 2.630529 11.272932 3
 8.584172 1.311510 9.895677 3
 4.980274 3.545190 8.525423 3
 4.992145 3.435794 8.427900 3
 8.248993 0.587877 8.836864 3
 8.138595 0.527782 8.666366 3
 6.437969 2.501460 8.939391 3
 9.795480 2.705582 12.501057 3
 9.691846 2.643283 12.335120 3
 5.938301 3.649847 9.588113 3
 6.056940 3.532387 9.589298 3
 5.894660 3.516148 9.410771 3
 5.076163 3.588451 8.664574 3
 5.056581 2.785297 7.841831 3
 5.135196 2.938230 8.073383 3
 4.979111 2.910539 7.889603 3
 6.580320 1.413871 7.994158 3
 9.298770 1.322060 10.620830 3
 8.168266 0.324664 8.492927 3
 8.117494 1.321646 9.439122 3
 9.896333 4.076138 13.972460 3
 6.560232 3.675211 10.235421 3
 9.731742 3.404548 13.136286 3
 9.595600 3.461062 13.056664 3
 9.617782 3.328546 12.946322 3
 9.484823 3.377062 12.861875 3
 4.667202 3.462225 8.129389 3
 4.769167 3.354741 8.123860 3
 4.384297 4.111179 8.495459 3
 4.321894 4.212945 8.534823 3
 4.274329 4.054249 8.328556 3
 8.206525 0.729662 8.936174 3
 8.809734 0.800232 9.609968 3
 8.646532 0.810924 9.457463 3
 8.365952 2.673563 11.039501 3
 6.296707 3.204232 9.500904 3
 6.185885 3.204252 9.390096 3
 6.239849 3.085736 9.325545 3
 7.846552 0.756488 8.603024 3
 5.244003 3.003819 8.247776 3
 8.334949 3.194570 11.529497 3
 4.208792 4.172944 8.381726 3
 6.666667 0.000000 6.666667 3
 8.962798 2.763805 11.726595 3
 7.850990 1.168013 9.018986 3
 7.044038 0.280671 7.324704 3
 5.387218 3.530872 8.918042 3
 9.596484 3.754119 13.350585 3
 5.162831 5.003466 10.166283 3
 4.970611 2.699820 7.670384 3
 4.802077 2.705404 7.507435 3
 4.884775 2.618406 7.503136 3
 4.896239 2.810410 7.706603 3
 9.544909 3.601026 13.145917 3
 9.696916 3.536094 13.232999 3
 8.994673 1.019990 10.014661 3
 7.052512 3.196591 10.249083 3
 8.215405 1.627476 9.842870 3
 6.727134 2.194557 8.921659 3
 6.807657 2.096110 8.903740 3
 7.336075 1.231452 8.567498 3
 7.169745 1.239987 8.409704 3
 7.261079 1.146039 8.407094 3
 5.791094 1.253505 7.044565 3
 7.457663 0.674062 8.131719 3
 6.623591 1.689522 8.313083 3
 7.707490 2.529548 10.237016 3
 4.616161 4.974397 9.590554 3
 5.491504 3.133132 8.624592 3
 5.603273 3.042680 8.645908 3
 5.642973 3.185237 8.828169 3
 6.551127 3.130996 9.682095 3
 6.429959 3.207061 9.636984 3
 8.126678 2.518943 10.645614 3
 7.462380 1.464749 8.927101 3
 7.388029 1.351707 8.739709 3
 7.538618 1.349015 8.887606 3
 7.462672 1.262592 8.725235 3
 9.128722 1.940146 11.068870 3
 7.068888 2.818274 9.887139 3
 9.774709 2.930579 12.705276 3
 9.830764 3.057855 12.888614 3
 9.671414 3.023718 12.695126 3
 7.983636 2.709339 10.692964 3
 9.290168 1.126688 10.416857 3
 8.034971 2.803290 10.838242 3
 9.905188 2.023133 11.928321 3
 9.662862 0.349809 10.012679 3
 6.759270 1.021705 7.780953 3
 6.719118 1.165979 7.885074 3
 6.623026 1.060949 7.683951 3
 9.755339 1.802902 11.558241 3
 8.182172 0.226299 8.408469 3
 9.370563 3.484943 12.855491 3
 7.102610 1.031868 8.134458 3
 5.639409 1.351996 6.991367 3
 5.700864 1.196129 6.896958 3
 5.751071 1.354306 7.105344 3
 8.040907 2.404523 10.445414 3
 9.002016 1.284990 10.287008 3
 8.919353 1.130524 10.049883 3
 9.642103 3.181105 12.823205 3
 9.752715 3.139652 12.892357 3
 9.735064 3.290539 13.025606 3
 5.853254 2.683828 8.537035 3
 7.856003 1.453294 9.309270 3
 9.659159 3.651117 13.310269 3
 6.800164 1.985727 8.785865 3
 5.253133 3.592055 8.845148 3
 5.149763 3.675928 8.825653 3
 8.547351 2.765906 11.313244 3
 8.666471 2.749717 11.416174 3
 4.840199 3.236122 8.076281 3
 6.840518 4.024195 10.864683 3
 6.822093 3.892826 10.714894 3
 6.958953 3.898711 10.857635 3
 6.021003 1.303025 7.323995 3
 9.518946 2.138441 11.657393 3
 9.867215 3.358270 13.225477 3
 6.669121 0.801367 7.470467 3
 6.635121 0.669872 7.304976 3
 9.135469 0.213983 9.349455 3
 5.521235 3.272081 8.793267 3
 9.338692 2.983404 12.322086 3
 5.489552 4.544328 10.033856 3
 5.448073 4.418504 9.866558 3
 7.372607 1.087612 8.460200 3
 7.897685 1.866148 9.763813 3
 8.990734 1.636586 10.627309 3
 9.061483 1.732573 10.794048 3
 7.065910 1.528489 8.594376 3
 7.413507 2.305499 9.718981 3
 7.563960 2.329350 9.893290 3
 7.501750 2.447927 9.949660 3
 8.190020 2.426300 10.616306 3
 8.122610 2.331050 10.453647 3
 7.025963 1.672231 8.698164 3
 6.600846 2.932975 9.533786 3
 9.252267 3.424379 12.676635 3
 8.124784 1.717798 9.842566 3
 7.239058 1.351035 8.590061 3
 7.179577 3.233610 10.413169 3
 4.946111 4.241687 9.187768 3
 10.000000 0.555556 10.555556 3
 10.000000 0.694444 10.694444 3
 9.846493 0.624231 10.470725 3
 9.305555 0.000000 9.305555 3
 9.444445 0.000000 9.444445 3
 9.376101 0.152226 9.528325 3
 8.071854 0.420917 8.492764 3
 8.515110 2.065522 10.580622 3
 8.402747 2.097991 10.500731 3
 4.228453 5.249140 9.477607 3
 4.102524 5.218718 9.321257 3
 4.223283 5.113678 9.336976 3
 4.090350 5.075854 9.166220 3
 6.783769 0.483042 7.266799 3
 6.804168 0.361318 7.165471 3
 6.848816 2.968618 9.817411 3
 6.763456 3.051121 9.814550 3
 6.708418 2.887866 9.596256 3
 6.403944 4.719996 11.123910 3
 6.012780 4.101611 10.114371 3
 8.499480 2.649626 11.149090 3
 7.126564 2.429618 9.556157 3
 5.809717 3.636134 9.445818 3
 9.587584 4.065104 13.652668 3
 9.630780 4.212965 13.843735 3
 9.477521 4.131865 13.609371 3
 7.994965 1.638687 9.633628 3
 6.220135 3.313431 9.533530 3
 5.754136 3.997911 9.752023 3
 5.877999 4.044163 9.922137 3
 6.969264 3.105634 10.074868 3
 6.111645 3.123548 9.235148 3
 8.486609 3.217386 11.703977 3
 8.413008 3.308919 11.721909 3
 9.451973 1.710454 11.162428 3
 7.330201 3.277953 10.608144 3
 6.332080 3.337939 9.669995 3
 5.924449 1.697210 7.621628 3
 8.167719 0.849068 9.016780 3
 10.000000 3.333333 13.333333 3
 8.578949 3.131859 11.710790 3
 8.421050 3.111072 11.532104 3
 6.317006 1.807146 8.124114 3
 7.965651 1.536039 9.501669 3
 8.375373 0.580966 8.956342 3
 8.335576 1.998213 10.333781 3
 7.015406 2.209645 9.225028 3
 9.770711 0.759233 10.529946 3
 6.553434 3.253668 9.807072 3
 6.498818 1.877933 8.376721 3
 5.544936 3.387389 8.932283 3
 5.672415 3.443717 9.116093 3
 5.817223 2.939673 8.756850 3
 6.404159 1.871603 8.275729 3
 4.531424 4.616923 9.148336 3
 4.485788 4.489397 8.975169 3
 4.613379 4.491912 9.105273 3
 8.750494 1.494737 10.245224 3
 8.623773 1.464182 10.087948 3
 9.019844 1.846440 10.866275 3
 6.919560 2.163072 9.082604 3
 6.833597 2.217250 9.050819 3
 6.324122 0.610765 6.934871 3
 6.232086 0.489105 6.721174 3
 6.351065 0.492053 6.843107 3
 9.308034 2.864636 12.172657 3
 4.293717 4.469721 8.763428 3
 4.224833 4.577634 8.802463 3
 4.176639 4.432660 8.609300 3
 5.964937 0.861226 6.826138 3
 5.967681 0.740476 6.708137 3
 7.823123 2.586313 10.409418 3
 5.254696 3.469616 8.724271 3
 5.356595 3.148484 8.505038 3
 5.688493 2.933833 8.622277 3
 9.719865 1.341398 11.061267 3
 9.386144 1.831876 11.218016 3
 9.426682 1.973511 11.400193 3
 9.272293 1.925536 11.197821 3
 9.312862 2.071491 11.384345 3
 6.319388 0.847432 7.166799 3
 6.209965 0.725599 6.935542 3
 6.376384 0.726212 7.102575 3
 7.893880 1.056013 8.949877 3
 8.295401 1.002043 9.297439 3
 4.009738 4.968693 8.978440 3
 8.044533 2.262336 10.306849 3
 7.258426 1.044417 8.302818 3
 7.190665 0.931192 8.121839 3
 6.351488 2.797552 9.148996 3
 5.559829 2.921219 8.481001 3
 5.639620 2.821225 8.460804 3
 6.485501 4.018254 10.503731 3
 6.366496 4.075804 10.442280 3
 8.576487 1.580054 10.156527 3
 9.529906 1.061277 10.591178 3
 9.431851 0.943857 10.375706 3
 9.414834 1.117136 10.531970 3
 6.069672 0.717208 6.786859 3
 4.932013 4.647442 9.579439 3
 5.275603 3.211721 8.487285 3
 4.759320 3.939040 8.698326 3
 6.905020 0.667579 7.572586 3
 6.236480 4.716629 10.953079 3
 8.542651 3.328246 11.870876 3
 6.412480 2.222630 8.635072 3
 9.463327 2.712473 12.175801 3
 6.109220 1.114250 7.223439 3
 6.692377 3.259622 9.951973 3
 9.284926 1.728074 11.012998 3
 7.000378 1.790072 8.790426 3
 7.106781 1.745396 8.852147 3
 7.104016 1.896052 9.000041 3
 6.017458 1.194945 7.212372 3
 8.558815 0.590910 9.149725 3
 7.361111 0.000000 7.361111 3
 7.430360 0.115371 7.545730 3
 7.298603 0.081500 7.380100 3
 7.001577 1.985255 8.986801 3
 6.904934 2.032708 8.937611 3
 4.892799 3.621217 8.513977 3
 4.877970 3.460608 8.338538 3
 4.805853 3.550478 8.356286 3
 6.177104 2.218388 8.395450 3
 8.866799 1.345885 10.212685 3
 8.773729 0.568243 9.341970 3
 9.059108 1.544757 10.603860 3
 9.100688 1.645534 10.746213 3
 8.512167 1.507207 10.019364 3
 6.815573 3.308843 10.124394 3
 9.285225 0.878031 10.163255 3
 9.180266 0.778876 9.959141 3
 9.297025 0.717826 10.014852 3
 7.259796 3.145880 10.405657 3
 7.574777 0.208464 7.783237 3
 7.413603 0.246067 7.659663 3
 9.756651 1.691617 11.448264 3
 4.113810 4.543948 8.657757 3
 7.391330 2.057900 9.449206 3
 7.288234 2.111815 9.400023 3
 7.314125 1.977033 9.291134 3
 7.206226 2.005661 9.211865 3
 6.259442 2.007288 8.266696 3
 8.450005 2.413283 10.863277 3
 7.517454 0.318836 7.836282 3
 8.347806 0.472575 8.820374 3
 9.007729 3.134118 12.141832 3
 9.909224 0.487143 10.396366 3
 9.513889 0.086995 9.600886 3
 9.681722 4.117604 13.799309 3
 5.898433 2.361704 8.260093 3
 5.982413 1.512895 7.495274 3
 5.834264 1.546674 7.380901 3
 5.553351 2.008258 7.561564 3
 5.591503 2.147502 7.738960 3
 5.479326 2.095993 7.575275 3
 6.949171 2.859374 9.808527 3
 6.831521 2.857825 9.689319 3
 6.882554 2.715508 9.598033 3
 5.535244 3.911534 9.446742 3
 5.986840 4.235795 10.222609 3
 6.474845 0.818576 7.293401 3
 6.385768 0.954320 7.340067 3
 6.515819 0.965129 7.480927 3
 6.025159 1.666218 7.691342 3
 6.119349 1.567009 7.686319 3
 6.462369 1.397370 7.859707 3
 6.324215 1.436751 7.760933 3
 9.726391 3.722780 13.449162 3
 7.167843 0.736264 7.904094 3
 7.038102 0.646844 7.684929 3
 6.846932 1.120401 7.967309 3
 6.207385 3.602029 9.809387 3
 7.376606 0.756333 8.132926 3
 7.500000 0.000000 7.500000 3
 7.554602 1.571620 9.126198 3
 5.654665 4.222553 9.877193 3
 5.793844 4.270030 10.063848 3
 9.169523 0.630066 9.799592 3
 9.150927 0.492288 9.643212 3
 9.290156 0.592840 9.882994 3
 9.470921 0.786546 10.257468 3
 4.314122 4.746890 9.061016 3
 9.167747 1.818970 10.986712 3
 5.674036 2.063046 7.737035 3
 8.897501 1.244893 10.142390 3
 10.000000 0.277778 10.277778 3
 10.000000 0.416667 10.416667 3
 9.583333 0.000000 9.583333 3
 9.722222 0.000000 9.722222 3
 4.349597 5.130523 9.480127 3
 6.814268 1.252717 8.066957 3
 6.944895 1.193835 8.138708 3
 6.571663 1.316208 7.887842 3
 6.483446 1.273219 7.756638 3
 9.567870 1.672118 11.239988 3
 6.883154 0.113225 6.996377 3
 6.748885 3.832602 10.581468 3
 10.000000 3.055556 13.055556 3
 9.896259 2.958136 12.854397 3
 8.758950 1.115047 9.873996 3
 4.835374 3.996528 8.831875 3
 7.475721 1.154086 8.629785 3
 9.024781 2.865752 11.890516 3
 8.925119 2.901931 11.827045 3
 8.856956 2.819974 11.676922 3
 7.653986 2.107674 9.761643 3
 7.083333 0.000000 7.083333 3
 7.079720 0.141202 7.220919 3
 6.644121 4.409723 11.053816 3
 6.066569 3.266784 9.333318 3
 8.592486 0.390641 8.983127 3
 8.721608 0.441784 9.163393 3
 8.581511 0.496440 9.077956 3
 6.648148 3.030420 9.678535 3
 5.611839 4.572730 10.184541 3
 6.659159 2.606412 9.265538 3
 7.168542 1.126727 8.295243 3
 7.657166 0.302552 7.959712 3
 7.781382 0.302012 8.083382 3
 4.385042 4.553868 8.938895 3
 5.330670 3.718760 9.049390 3
 5.229077 3.752170 8.981202 3
 5.748894 3.857811 9.606680 3
 8.860346 1.458757 10.319104 3
 6.460124 3.478721 9.938817 3
 7.222222 0.000000 7.222222 3
 7.067441 0.778951 7.846374 3
 6.840494 2.576562 9.417030 3
 6.760593 2.649564 9.410130 3
 6.707620 2.517997 9.225592 3
 7.735209 2.199541 9.934732 3
 7.859236 2.189422 10.048635 3
 7.920929 2.087509 10.008422 3
 7.879289 3.139514 11.018789 3
 7.888206 3.296390 11.184583 3
 7.778308 3.199289 10.977583 3
 5.000618 3.700143 8.700718 3
 5.123907 3.795362 8.919229 3
 7.632497 1.874329 9.506800 3
 10.000000 1.944444 11.944444 3
 8.055555 0.000000 8.055555 3
 9.097796 2.162515 11.260308 3
 4.555039 3.463412 8.018416 3
 7.421768 2.171318 9.593059 3
 4.514215 4.754536 9.268747 3
 8.605382 1.994545 10.599919 3
 9.791840 2.029161 11.821009 3
 6.740088 4.479023 11.219082 3