TITLE      =  "2D FE Unstructured grid data" 
VARIABLES = "X", "Y", "U", "Dom" 
ZONE T="P1", F=FEPOINT, N= 616 E= 1130  ET=TRIANGLE 
 3.600000 10.000000 13.600000 1
 3.700000 9.826795 13.526800 1
 3.800000 10.000000 13.800000 1
 3.900000 9.826795 13.726808 1
 4.000000 10.000000 14.000000 1
 4.100000 9.826795 13.926805 1
 4.200000 10.000000 14.200000 1
 4.300000 9.826795 14.126802 1
 4.400000 10.000000 14.400000 1
 4.500000 9.826795 14.326809 1
 4.600000 10.000000 14.600000 1
 4.700000 9.826795 14.526806 1
 4.800000 10.000000 14.800000 1
 4.900000 9.826795 14.726814 1
 5.000000 10.000000 15.000000 1
 5.200000 10.000000 15.200000 1
 5.100000 9.826795 14.926808 1
 5.300000 9.826795 15.126808 1
 5.400000 10.000000 15.400000 1
 5.500000 9.826795 15.326810 1
 5.600000 10.000000 15.600000 1
 5.700000 9.826795 15.526806 1
 5.800000 10.000000 15.800000 1
 5.900000 9.826795 15.726810 1
 6.000000 10.000000 16.000000 1
 6.100000 9.826795 15.926808 1
 6.200000 10.000000 16.200001 1
 6.300000 9.826795 16.126804 1
 6.400000 10.000000 16.400000 1
 6.500000 9.826795 16.326792 1
 6.600000 10.000000 16.600000 1
 6.700000 9.826795 16.526802 1
 6.800000 10.000000 16.799999 1
 6.900000 9.826795 16.726805 1
 7.000000 10.000000 17.000000 1
 7.100000 9.826795 16.926804 1
 7.200000 10.000000 17.200001 1
 7.300000 9.826795 17.126802 1
 7.400000 10.000000 17.400000 1
 7.500000 9.826796 17.326788 1
 7.600000 10.000000 17.600000 1
 7.700002 9.826799 17.526804 1
 7.800000 10.000000 17.799999 1
 7.900011 9.826811 17.726822 1
 8.000000 10.000000 18.000000 1
 8.100041 9.826840 17.926878 1
 8.200000 10.000000 18.200001 1
 8.300128 9.826893 18.127028 1
 8.400000 10.000000 18.400000 1
 8.500334 9.826964 18.327305 1
 8.600000 10.000000 18.600000 1
 8.700749 9.827041 18.527782 1
 8.800000 10.000000 18.799999 1
 8.901427 9.827153 18.728580 1
 9.000000 10.000000 19.000000 1
 9.102324 9.827316 18.929646 1
 9.200000 10.000000 19.200001 1
 9.303625 9.827213 19.130836 1
 9.400000 10.000000 19.400000 1
 9.507698 9.826240 19.333935 1
 9.600000 10.000000 19.600000 1
 9.707205 9.840112 19.547314 1
 9.800000 10.000000 19.799999 1
 9.868964 9.869840 19.738800 1
 10.000000 10.000000 20.000000 1
 10.000000 9.800000 19.799999 1
 9.837681 9.709203 19.546875 1
 10.000000 9.600000 19.600000 1
 9.820952 9.509867 19.330807 1
 10.000000 9.400000 19.400000 1
 9.820171 9.304181 19.124357 1
 10.000000 9.200000 19.200001 1
 9.821795 9.101304 18.923098 1
 10.000000 9.000000 19.000000 1
 9.824164 8.900148 18.724325 1
 10.000000 8.800000 18.799999 1
 9.825560 8.699957 18.525528 1
 10.000000 8.600000 18.600000 1
 9.826258 8.499968 18.326231 1
 10.000000 8.400000 18.400000 1
 9.826588 8.299988 18.126572 1
 10.000000 8.200000 18.200001 1
 9.826729 8.099998 17.926727 1
 10.000000 8.000000 18.000000 1
 9.826778 7.900001 17.726782 1
 10.000000 7.800000 17.799999 1
 9.826792 7.700001 17.526794 1
 10.000000 7.600000 17.600000 1
 9.826795 7.500000 17.326807 1
 10.000000 7.400000 17.400000 1
 9.826795 7.300000 17.126802 1
 10.000000 7.200000 17.200001 1
 9.826795 7.100000 16.926813 1
 10.000000 7.000000 17.000000 1
 9.826795 6.900000 16.726810 1
 10.000000 6.800000 16.799999 1
 3.500000 9.826795 13.326797 1
 3.300000 9.826795 13.126795 1
 3.400000 9.653590 13.053610 1
 3.600000 9.653590 13.253609 1
 3.800000 9.653590 13.453611 1
 4.000000 9.653590 13.653615 1
 4.200000 9.653590 13.853615 1
 4.400000 9.653590 14.053615 1
 4.600000 9.653590 14.253616 1
 4.800000 9.653590 14.453620 1
 5.000000 9.653590 14.653620 1
 5.200000 9.653590 14.853613 1
 5.400000 9.653590 15.053617 1
 5.600000 9.653590 15.253613 1
 5.800000 9.653590 15.453621 1
 6.000000 9.653590 15.653619 1
 6.200000 9.653590 15.853612 1
 6.400000 9.653590 16.053608 1
 6.600000 9.653590 16.253599 1
 6.800000 9.653590 16.453609 1
 7.000000 9.653590 16.653612 1
 7.200000 9.653590 16.853603 1
 7.400001 9.653591 17.053612 1
 7.600004 9.653597 17.253599 1
 7.800018 9.653618 17.453646 1
 8.000062 9.653674 17.653742 1
 8.200181 9.653785 17.853979 1
 8.400465 9.653945 18.054413 1
 8.601070 9.654096 18.255175 1
 8.802207 9.654192 18.456408 1
 9.003881 9.654489 18.658377 1
 9.205553 9.655162 18.860723 1
 9.406587 9.654738 19.061325 1
 9.629012 9.635622 19.264647 1
 9.638646 9.410381 19.049017 1
 9.639001 9.203550 18.842554 1
 9.646443 8.999763 18.646208 1
 9.650084 8.799567 18.449661 1
 9.651889 8.599755 18.251659 1
 9.652842 8.399879 18.052727 1
 9.653315 8.199951 17.853270 1
 9.653508 7.999991 17.653498 1
 9.653569 7.800005 17.453571 1
 9.653584 7.600005 17.253584 1
 9.653588 7.400002 17.053598 1
 9.653589 7.200001 16.853596 1
 9.653590 7.000000 16.653597 1
 3.200000 9.653590 12.853607 1
 3.300000 9.480385 12.780402 1
 3.500000 9.480385 12.980407 1
 3.700000 9.480385 13.180405 1
 3.900000 9.480385 13.380412 1
 4.100000 9.480385 13.580420 1
 4.300000 9.480385 13.780410 1
 4.500000 9.480385 13.980422 1
 4.700000 9.480385 14.180420 1
 4.900000 9.480385 14.380421 1
 5.100000 9.480385 14.580421 1
 5.300000 9.480385 14.780419 1
 5.500000 9.480385 14.980419 1
 5.700000 9.480385 15.180414 1
 5.900000 9.480385 15.380412 1
 6.100000 9.480385 15.580415 1
 6.300000 9.480385 15.780409 1
 6.500000 9.480385 15.980405 1
 6.700000 9.480385 16.180405 1
 6.900000 9.480385 16.380405 1
 7.100000 9.480385 16.580408 1
 7.300002 9.480387 16.780407 1
 7.500010 9.480394 16.980413 1
 7.700032 9.480425 17.180470 1
 7.900091 9.480510 17.380615 1
 8.100234 9.480691 17.580933 1
 8.300544 9.480989 17.781546 1
 8.501161 9.481326 17.982496 1
 8.702361 9.481443 18.183813 1
 8.904716 9.481133 18.385859 1
 9.107935 9.482063 18.590002 1
 9.309589 9.485273 18.794863 1
 9.484353 9.499175 18.983526 1
 9.437746 9.309972 18.747717 1
 9.467803 9.095390 18.563196 1
 9.473907 8.897997 18.371922 1
 9.476659 8.699073 18.175745 1
 9.478454 8.499472 17.977921 1
 9.479591 8.299726 17.779325 1
 9.480122 8.099918 17.580042 1
 9.480307 7.900009 17.380325 1
 9.480357 7.700027 17.180391 1
 9.480372 7.500017 16.980404 1
 9.480380 7.300006 16.780390 1
 9.480384 7.100001 16.580389 1
 3.400000 9.307179 12.707206 1
 3.600000 9.307179 12.907205 1
 3.800000 9.307179 13.107210 1
 4.000000 9.307179 13.307214 1
 4.200000 9.307179 13.507218 1
 4.400000 9.307179 13.707218 1
 4.600000 9.307179 13.907220 1
 4.800000 9.307179 14.107222 1
 5.000000 9.307179 14.307220 1
 5.200000 9.307179 14.507220 1
 5.400000 9.307179 14.707220 1
 5.600000 9.307179 14.907221 1
 5.800000 9.307179 15.107228 1
 6.000000 9.307179 15.307216 1
 6.200000 9.307179 15.507210 1
 6.400000 9.307179 15.707207 1
 6.600000 9.307179 15.907201 1
 6.800000 9.307179 16.107197 1
 7.000001 9.307179 16.307196 1
 7.200006 9.307181 16.507212 1
 7.400021 9.307189 16.707218 1
 7.600062 9.307224 16.907293 1
 7.800154 9.307332 17.107491 1
 8.000341 9.307586 17.307930 1
 8.200694 9.308045 17.508749 1
 8.401299 9.308702 17.710018 1
 8.602229 9.309296 17.911539 1
 8.803866 9.308906 18.112783 1
 9.008959 9.305711 18.314676 1
 9.215408 9.310452 18.525867 1
 9.308238 9.165133 18.473373 1
 9.299490 8.995043 18.294542 1
 9.300645 8.797984 18.098639 1
 9.302873 8.598524 17.901411 1
 9.305339 8.398994 17.704350 1
 9.306558 8.199627 17.506195 1
 9.306973 8.000001 17.306984 1
 9.307079 7.800108 17.107187 1
 9.307117 7.600085 16.907211 1
 9.307146 7.400040 16.707188 1
 9.307167 7.200013 16.507187 1
 3.500000 9.133975 12.634003 1
 3.700000 9.133975 12.834004 1
 3.900000 9.133975 13.034017 1
 4.100000 9.133975 13.234016 1
 4.300000 9.133975 13.434014 1
 4.500000 9.133975 13.634024 1
 4.700000 9.133975 13.834025 1
 4.900000 9.133975 14.034020 1
 5.100000 9.133975 14.234020 1
 5.300000 9.133975 14.434026 1
 5.500000 9.133975 14.634024 1
 5.700000 9.133975 14.834017 1
 5.900000 9.133975 15.034015 1
 6.100000 9.133975 15.234015 1
 6.300000 9.133975 15.434014 1
 6.500000 9.133975 15.634007 1
 6.700000 9.133975 15.833999 1
 6.900002 9.133974 16.034008 1
 7.100012 9.133974 16.233995 1
 7.300042 9.133979 16.434042 1
 7.500120 9.134007 16.634153 1
 7.700280 9.134119 16.834417 1
 7.900562 9.134421 17.035006 1
 8.101011 9.135026 17.236057 1
 8.301710 9.135969 17.437693 1
 8.502620 9.137278 17.639921 1
 8.703229 9.138531 17.841770 1
 8.902556 9.137239 18.039808 1
 9.119493 9.113961 18.233467 1
 9.124815 8.898394 18.023224 1
 9.123980 8.697309 17.821314 1
 9.130386 8.496932 17.627342 1
 9.132958 8.298738 17.431709 1
 9.133646 8.099950 17.233616 1
 9.133716 7.900363 17.034086 1
 9.133734 7.700330 16.834078 1
 9.133811 7.500182 16.634016 1
 9.133895 7.300073 16.433987 1
 3.600000 8.960770 12.560800 1
 3.800000 8.960770 12.760806 1
 4.000000 8.960770 12.960814 1
 4.200000 8.960770 13.160816 1
 4.400000 8.960770 13.360819 1
 4.600000 8.960770 13.560818 1
 4.800000 8.960770 13.760822 1
 5.000000 8.960770 13.960814 1
 5.200000 8.960770 14.160820 1
 5.400000 8.960770 14.360818 1
 5.600000 8.960770 14.560815 1
 5.800000 8.960770 14.760814 1
 6.000000 8.960770 14.960814 1
 6.200000 8.960770 15.160809 1
 6.400000 8.960770 15.360800 1
 6.600000 8.960770 15.560800 1
 6.800004 8.960769 15.760798 1
 7.000021 8.960766 15.960812 1
 7.200076 8.960763 16.160854 1
 7.400211 8.960773 16.361010 1
 7.600489 8.960849 16.561350 1
 7.800964 8.961123 16.762114 1
 8.001632 8.961826 16.963474 1
 8.202454 8.963049 17.165531 1
 8.403683 8.964512 17.368212 1
 8.604980 8.967175 17.572178 1
 8.804062 8.971238 17.775326 1
 8.975871 8.984391 17.960279 1
 8.927944 8.800052 17.728008 1
 8.955792 8.590317 17.546137 1
 8.960268 8.396417 17.356714 1
 8.960816 8.199830 17.160660 1
 8.960321 8.001071 16.961411 1
 8.960053 7.801050 16.761106 1
 8.960171 7.600637 16.560820 1
 8.960424 7.400289 16.360722 1
 3.399999 8.960769 12.360793 1
 8.960624 7.200102 16.160740 1
 3.499998 8.787563 12.287596 1
 3.700000 8.787564 12.487596 1
 3.900000 8.787564 12.687602 1
 4.100000 8.787564 12.887611 1
 4.300000 8.787564 13.087612 1
 4.500000 8.787564 13.287610 1
 4.700000 8.787564 13.487613 1
 4.900000 8.787564 13.687623 1
 5.100000 8.787564 13.887617 1
 5.300000 8.787564 14.087616 1
 5.500000 8.787564 14.287615 1
 5.700000 8.787564 14.487617 1
 5.900000 8.787564 14.687609 1
 6.100000 8.787564 14.887602 1
 6.300000 8.787564 15.087601 1
 6.500001 8.787563 15.287599 1
 6.700006 8.787560 15.487593 1
 6.900033 8.787551 15.687603 1
 7.100119 8.787532 15.887664 1
 7.300333 8.787510 16.087854 1
 7.500772 8.787518 16.288305 1
 7.701538 8.787665 16.489220 1
 7.902682 8.788234 16.690929 1
 8.103920 8.789767 16.893707 1
 8.304799 8.791993 17.096815 1
 8.507434 8.792245 17.299692 1
 8.710189 8.799296 17.509506 1
 8.800416 8.657840 17.458277 1
 8.791305 8.492050 17.283375 1
 8.790014 8.299849 17.089897 1
 8.787310 8.102899 16.890224 1
 8.785805 7.902880 16.688698 1
 8.785787 7.701822 16.487633 1
 8.786403 7.500889 16.287310 1
 8.787004 7.300355 16.087376 1
 3.599998 8.614357 12.214389 1
 3.800000 8.614359 12.414396 1
 4.000000 8.614359 12.614398 1
 4.200000 8.614359 12.814409 1
 4.400000 8.614359 13.014413 1
 4.600000 8.614359 13.214415 1
 4.800000 8.614359 13.414416 1
 5.000000 8.614359 13.614412 1
 5.200000 8.614359 13.814416 1
 5.400000 8.614359 14.014412 1
 5.600000 8.614359 14.214405 1
 5.800000 8.614359 14.414404 1
 6.000000 8.614359 14.614407 1
 6.200000 8.614359 14.814402 1
 6.400001 8.614357 15.014392 1
 6.600008 8.614349 15.214382 1
 6.800041 8.614325 15.414392 1
 7.000158 8.614272 15.614452 1
 7.200464 8.614189 15.814675 1
 7.401100 8.614105 16.015221 1
 7.602202 8.614091 16.216311 1
 7.803920 8.614282 16.418224 1
 8.006411 8.615168 16.621595 1
 8.208127 8.619066 16.827209 1
 8.405689 8.624035 17.029737 1
 8.617222 8.606673 17.223927 1
 8.624592 8.400598 17.025206 1
 8.616014 8.207366 16.823410 1
 8.610533 8.007153 16.617706 1
 8.609851 7.804448 16.414318 1
 8.611132 7.602213 16.213356 1
 8.612662 7.400936 16.013615 1
 3.399987 8.614347 12.014362 1
 8.613657 7.200366 15.814042 1
 3.499990 8.441135 11.941161 1
 3.699999 8.441151 12.141191 1
 3.900000 8.441154 12.341194 1
 4.100000 8.441154 12.541203 1
 4.300000 8.441154 12.741210 1
 4.500000 8.441154 12.941209 1
 4.700000 8.441154 13.141211 1
 4.900000 8.441154 13.341215 1
 5.100000 8.441154 13.541219 1
 5.300000 8.441154 13.741216 1
 5.500000 8.441154 13.941210 1
 5.700000 8.441154 14.141209 1
 5.900000 8.441154 14.341205 1
 6.100000 8.441154 14.541201 1
 6.300001 8.441152 14.741190 1
 6.500006 8.441138 14.941176 1
 6.700037 8.441092 15.141162 1
 6.900167 8.440974 15.341170 1
 7.100551 8.440766 15.541338 1
 7.301406 8.440505 15.741930 1
 7.502907 8.440312 15.943234 1
 7.705102 8.440290 16.145411 1
 7.908232 8.440257 16.348505 1
 8.114511 8.439873 16.554409 1
 8.316344 8.454264 16.770626 1
 8.482716 8.480515 16.963242 1
 8.451464 8.317411 16.768888 1
 8.432551 8.117146 16.549702 1
 8.430984 7.909530 16.340525 1
 8.433331 7.704561 16.137909 1
 8.436935 7.501875 15.938826 1
 8.439303 7.300807 15.740129 1
 8.440486 7.100379 15.540883 1
 3.600001 8.267923 11.867961 1
 3.800002 8.267944 12.067995 1
 4.000000 8.267949 12.267997 1
 4.200000 8.267949 12.468002 1
 4.400000 8.267949 12.668004 1
 4.600000 8.267949 12.868009 1
 4.800000 8.267949 13.068017 1
 5.000000 8.267949 13.268015 1
 5.200000 8.267949 13.468014 1
 5.400000 8.267949 13.668014 1
 5.600000 8.267949 13.868012 1
 5.800000 8.267949 14.068004 1
 6.000000 8.267950 14.268000 1
 6.200001 8.267948 14.467993 1
 6.400003 8.267935 14.667973 1
 6.600019 8.267870 14.867928 1
 6.800119 8.267676 15.067832 1
 7.000500 8.267258 15.267785 1
 7.201506 8.266623 15.468154 1
 7.403491 8.265994 15.669498 1
 7.606437 8.265835 15.872293 1
 7.809722 8.266250 16.075998 1
 8.012724 8.265565 16.278303 1
 8.238058 8.245457 16.483530 1
 8.248485 8.017168 16.265676 1
 8.250033 7.808044 16.058094 1
 8.259111 7.602485 15.861610 1
 8.264059 7.401207 15.665285 1
 8.266472 7.200780 15.467273 1
 3.700018 8.094711 11.794771 1
 3.900006 8.094737 11.994789 1
 4.100001 8.094743 12.194793 1
 4.300000 8.094744 12.394802 1
 4.500000 8.094744 12.594804 1
 4.700000 8.094744 12.794810 1
 4.900000 8.094744 12.994810 1
 5.100000 8.094744 13.194811 1
 5.300000 8.094744 13.394809 1
 5.500000 8.094744 13.594806 1
 5.700000 8.094745 13.794797 1
 5.900001 8.094746 13.994799 1
 6.100003 8.094748 14.194800 1
 6.300003 8.094746 14.394793 1
 6.499997 8.094692 14.594729 1
 6.700018 8.094465 14.794520 1
 6.900240 8.093843 14.994116 1
 7.101136 8.092621 15.193783 1
 7.303385 8.091028 15.394436 1
 7.507507 8.089787 15.597318 1
 7.712632 8.090658 15.803309 1
 7.916001 8.093883 16.009903 1
 8.092253 8.107602 16.199862 1
 8.047065 7.915984 15.963061 1
 8.079967 7.699140 15.779121 1
 8.088432 7.500603 15.589058 1
 8.092319 7.301176 15.393514 1
 8.093918 7.101106 15.195049 1
 3.800045 7.921496 11.721588 1
 4.000014 7.921528 11.921587 1
 4.200003 7.921536 12.121593 1
 4.400000 7.921538 12.321600 1
 4.600000 7.921539 12.521604 1
 4.800000 7.921539 12.721607 1
 5.000000 7.921539 12.921611 1
 5.200000 7.921539 13.121609 1
 5.400000 7.921539 13.321605 1
 5.600000 7.921539 13.521602 1
 5.800000 7.921542 13.721597 1
 6.000003 7.921551 13.921610 1
 6.200006 7.921570 14.121622 1
 6.399990 7.921570 14.321603 1
 6.599923 7.921422 14.521387 1
 6.799852 7.920802 14.720689 1
 7.000161 7.919147 14.919342 1
 7.201972 7.915965 15.117971 1
 7.406426 7.912672 15.319116 1
 7.615009 7.909873 15.524903 1
 7.823510 7.916173 15.739705 1
 7.919465 7.769210 15.688691 1
 7.914666 7.598018 15.512706 1
 7.919014 7.401294 15.320327 1
 7.920671 7.202161 15.122855 1
 7.921124 7.001723 14.922878 1
 3.900084 7.748278 11.648405 1
 4.100024 7.748317 11.848396 1
 4.300004 7.748328 12.048389 1
 4.500000 7.748332 12.248390 1
 4.700000 7.748333 12.448400 1
 4.900000 7.748334 12.648398 1
 5.100000 7.748334 12.848403 1
 5.300000 7.748334 13.048399 1
 5.500000 7.748334 13.248396 1
 5.699999 7.748337 13.448400 1
 5.900002 7.748352 13.648409 1
 6.100009 7.748398 13.848457 1
 6.300004 7.748482 14.048535 1
 6.499908 7.748530 14.248479 1
 6.699587 7.748238 14.447860 1
 6.899025 7.746879 14.645934 1
 7.098901 7.743095 14.842025 1
 7.302651 7.734631 15.037307 1
 7.509539 7.731553 15.241112 1
 7.732167 7.715353 15.447542 1
 7.748335 7.501046 15.249405 1
 7.748656 7.303959 15.052635 1
 7.747915 7.103678 14.851617 1
 7.747567 6.902187 14.649781 1
 7.921262 6.800952 14.722243 1
 7.747691 6.700889 14.448610 1
 4.200021 7.575100 11.775174 1
 4.399998 7.575116 11.975172 1
 4.599997 7.575124 12.175179 1
 4.799999 7.575128 12.375189 1
 5.000000 7.575129 12.575191 1
 5.200000 7.575129 12.775194 1
 5.400000 7.575129 12.975190 1
 5.599999 7.575131 13.175186 1
 5.800000 7.575148 13.375201 1
 6.000010 7.575214 13.575279 1
 6.200029 7.575380 13.775451 1
 6.399985 7.575666 13.975685 1
 6.599641 7.575929 14.175609 1
 6.798581 7.575597 14.374213 1
 6.996397 7.573352 14.569777 1
 7.192815 7.566543 14.759383 1
 7.406449 7.535078 14.941553 1
 7.595268 7.578503 15.173795 1
 7.579806 7.407219 14.987052 1
 7.575139 7.207515 14.782678 1
 7.573007 7.004591 14.577625 1
 7.573136 6.801752 14.374917 1
 7.573880 6.600250 14.174161 1
 4.299983 7.401870 11.701904 1
 4.499979 7.401898 11.901931 1
 4.699991 7.401915 12.101965 1
 4.899998 7.401922 12.301970 1
 5.100000 7.401924 12.501982 1
 5.300002 7.401923 12.701985 1
 5.500004 7.401923 12.901984 1
 5.700010 7.401937 13.101999 1
 5.900026 7.402008 13.302081 1
 6.100066 7.402225 13.502339 1
 6.300113 7.402696 13.702849 1
 6.499981 7.403486 13.903506 1
 6.699100 7.404406 14.103539 1
 6.896491 7.404594 14.301122 1
 7.091061 7.402380 14.493473 1
 7.260177 7.408800 14.669011 1
 7.404015 7.315458 14.719500 1
 7.395728 7.109600 14.505360 1
 7.396633 6.902971 14.299632 1
 7.398360 6.699879 14.098269 1
 7.400393 6.499015 13.899439 1
 4.399891 7.228621 11.628559 1
 4.599943 7.228674 11.828669 1
 4.799980 7.228704 12.028733 1
 4.999997 7.228715 12.228764 1
 5.200007 7.228717 12.428779 1
 5.400022 7.228714 12.628787 1
 5.600050 7.228718 12.828821 1
 5.800099 7.228773 13.028926 1
 6.000179 7.228998 13.229226 1
 6.200305 7.229566 13.429914 1
 6.400444 7.230638 13.631122 1
 6.600226 7.232457 13.832722 1
 6.798473 7.234999 14.033508 1
 6.993329 7.236845 14.230209 1
 7.204820 7.223364 14.428218 1
 7.218233 7.003456 14.221721 1
 7.218993 6.798610 14.017639 1
 7.225412 6.596582 13.822028 1
 4.499747 7.055355 11.555148 1
 4.699891 7.055447 11.755388 1
 4.899968 7.055492 11.955504 1
 5.100009 7.055508 12.155563 1
 5.300053 7.055508 12.355610 1
 5.500133 7.055498 12.555681 1
 5.700271 7.055514 12.755833 1
 5.900481 7.055684 12.956213 1
 6.100739 7.056276 13.157055 1
 6.301001 7.057511 13.358553 1
 6.501451 7.059349 13.560840 1
 6.701508 7.063075 13.764621 1
 6.898578 7.069412 13.968021 1
 7.067957 7.086519 14.154510 1
 7.022577 6.899694 13.922309 1
 7.050794 6.688996 13.739825 1
 7.055077 6.494744 13.549853 1
 4.999977 6.882277 11.882296 1
 5.200088 6.882298 12.082428 1
 5.400254 6.882287 12.282583 1
 5.600543 6.882260 12.482847 1
 5.801002 6.882306 12.683358 1
 6.001642 6.882720 12.884403 1
 6.202217 6.884153 13.086405 1
 6.402333 6.886526 13.288894 1
 6.604114 6.887469 13.491622 1
 6.805897 6.896061 13.701998 1
 6.895675 6.755200 13.650912 1
 6.886317 6.589180 13.475529 1
 5.500879 6.709036 12.209954 1
 5.701659 6.708968 12.410669 1
 5.902831 6.709016 12.611886 1
 6.104554 6.709742 12.814330 1
 6.305386 6.713605 13.019028 1
 6.502120 6.718897 13.221052 1
 6.712865 6.702562 13.415463 1
 6.719636 6.496871 13.216547 1
 6.578311 6.575870 13.154213 1
 1 2 3 
 3 4 5 
 5 6 7 
 7 8 9 
 9 10 11 
 11 12 13 
 13 14 15 
 16 15 17 
 18 19 16 
 20 21 19 
 22 23 21 
 24 25 23 
 26 27 25 
 28 29 27 
 30 31 29 
 32 33 31 
 34 35 33 
 36 37 35 
 38 39 37 
 40 41 39 
 42 43 41 
 44 45 43 
 46 47 45 
 48 49 47 
 50 51 49 
 52 53 51 
 54 55 53 
 56 57 55 
 58 59 57 
 60 61 59 
 62 63 61 
 63 64 65 
 64 66 65 
 67 68 66 
 68 69 70 
 70 71 72 
 72 73 74 
 74 75 76 
 76 77 78 
 78 79 80 
 80 81 82 
 82 83 84 
 84 85 86 
 86 87 88 
 88 89 90 
 90 91 92 
 92 93 94 
 94 95 96 
 97 2 1 
 2 4 3 
 4 6 5 
 6 8 7 
 8 10 9 
 10 12 11 
 12 14 13 
 14 17 15 
 17 18 16 
 18 20 19 
 20 22 21 
 22 24 23 
 24 26 25 
 26 28 27 
 28 30 29 
 30 32 31 
 32 34 33 
 34 36 35 
 36 38 37 
 38 40 39 
 40 42 41 
 42 44 43 
 44 46 45 
 46 48 47 
 48 50 49 
 50 52 51 
 52 54 53 
 54 56 55 
 56 58 57 
 58 60 59 
 60 62 61 
 63 62 64 
 64 67 66 
 69 68 67 
 69 71 70 
 71 73 72 
 73 75 74 
 75 77 76 
 77 79 78 
 79 81 80 
 81 83 82 
 83 85 84 
 85 87 86 
 87 89 88 
 89 91 90 
 91 93 92 
 93 95 94 
 98 99 97 
 97 100 2 
 2 101 4 
 4 102 6 
 6 103 8 
 8 104 10 
 10 105 12 
 12 106 14 
 14 107 17 
 18 17 108 
 20 18 109 
 22 20 110 
 24 22 111 
 26 24 112 
 28 26 113 
 30 28 114 
 32 30 115 
 34 32 116 
 36 34 117 
 38 36 118 
 40 38 119 
 42 40 120 
 44 42 121 
 46 44 122 
 48 46 123 
 50 48 124 
 52 50 125 
 54 52 126 
 56 54 127 
 58 56 128 
 60 58 129 
 60 130 62 
 67 64 62 
 69 67 130 
 69 131 71 
 71 132 73 
 73 133 75 
 75 134 77 
 77 135 79 
 136 81 79 
 81 137 83 
 83 138 85 
 85 139 87 
 87 140 89 
 89 141 91 
 91 142 93 
 93 143 95 
 144 99 98 
 99 100 97 
 100 101 2 
 101 102 4 
 102 103 6 
 103 104 8 
 104 105 10 
 105 106 12 
 106 107 14 
 107 108 17 
 109 18 108 
 110 20 109 
 111 22 110 
 112 24 111 
 113 26 112 
 114 28 113 
 115 30 114 
 116 32 115 
 117 34 116 
 118 36 117 
 119 38 118 
 120 40 119 
 121 42 120 
 122 44 121 
 123 46 122 
 124 48 123 
 125 50 124 
 126 52 125 
 127 54 126 
 128 56 127 
 129 58 128 
 60 129 130 
 130 67 62 
 69 130 131 
 131 132 71 
 132 133 73 
 133 134 75 
 134 135 77 
 135 136 79 
 137 81 136 
 137 138 83 
 138 139 85 
 139 140 87 
 140 141 89 
 141 142 91 
 142 143 93 
 144 145 99 
 99 146 100 
 100 147 101 
 101 148 102 
 102 149 103 
 103 150 104 
 104 151 105 
 105 152 106 
 106 153 107 
 108 107 154 
 109 108 155 
 110 109 156 
 157 111 110 
 112 111 158 
 113 112 159 
 114 113 160 
 115 114 161 
 116 115 162 
 117 116 163 
 118 117 164 
 119 118 165 
 120 119 166 
 121 120 167 
 121 168 122 
 123 122 169 
 124 123 170 
 125 124 171 
 126 125 172 
 127 126 173 
 174 128 127 
 129 128 175 
 176 130 129 
 131 130 176 
 131 177 132 
 132 178 133 
 133 179 134 
 134 180 135 
 135 181 136 
 136 182 137 
 137 183 138 
 184 139 138 
 139 185 140 
 140 186 141 
 141 187 142 
 142 188 143 
 145 146 99 
 146 147 100 
 147 148 101 
 148 149 102 
 149 150 103 
 150 151 104 
 151 152 105 
 152 153 106 
 153 154 107 
 108 154 155 
 156 109 155 
 156 157 110 
 158 111 157 
 159 112 158 
 160 113 159 
 161 114 160 
 162 115 161 
 163 116 162 
 164 117 163 
 165 118 164 
 166 119 165 
 167 120 166 
 121 167 168 
 169 122 168 
 170 123 169 
 171 124 170 
 172 125 171 
 173 126 172 
 173 174 127 
 175 128 174 
 176 129 175 
 131 176 177 
 177 178 132 
 178 179 133 
 179 180 134 
 180 181 135 
 181 182 136 
 182 183 137 
 183 184 138 
 185 139 184 
 185 186 140 
 186 187 141 
 187 188 142 
 145 189 146 
 146 190 147 
 147 191 148 
 148 192 149 
 193 150 149 
 150 194 151 
 151 195 152 
 152 196 153 
 153 197 154 
 155 154 198 
 156 155 199 
 200 157 156 
 158 157 201 
 159 158 202 
 160 159 203 
 161 160 204 
 162 161 205 
 163 162 206 
 164 163 207 
 165 164 208 
 166 165 209 
 167 166 210 
 168 167 211 
 169 168 212 
 170 169 213 
 171 170 214 
 172 171 215 
 173 172 216 
 174 173 217 
 218 175 174 
 177 176 175 
 177 219 178 
 178 220 179 
 221 180 179 
 180 222 181 
 181 223 182 
 182 224 183 
 225 184 183 
 184 226 185 
 185 227 186 
 228 187 186 
 187 229 188 
 189 190 146 
 190 191 147 
 191 192 148 
 192 193 149 
 194 150 193 
 194 195 151 
 195 196 152 
 196 197 153 
 197 198 154 
 155 198 199 
 199 200 156 
 201 157 200 
 202 158 201 
 203 159 202 
 204 160 203 
 205 161 204 
 206 162 205 
 207 163 206 
 208 164 207 
 209 165 208 
 210 166 209 
 211 167 210 
 212 168 211 
 213 169 212 
 214 170 213 
 215 171 214 
 216 172 215 
 217 173 216 
 217 218 174 
 177 175 218 
 219 220 178 
 177 218 219 
 220 221 179 
 222 180 221 
 222 223 181 
 223 224 182 
 224 225 183 
 226 184 225 
 226 227 185 
 227 228 186 
 229 187 228 
 189 230 190 
 231 191 190 
 191 232 192 
 192 233 193 
 193 234 194 
 194 235 195 
 195 236 196 
 196 237 197 
 238 198 197 
 239 199 198 
 240 200 199 
 241 201 200 
 202 201 242 
 203 202 243 
 204 203 244 
 205 204 245 
 205 246 206 
 207 206 247 
 208 207 248 
 209 208 249 
 210 209 250 
 211 210 251 
 212 211 252 
 213 212 253 
 214 213 254 
 214 255 215 
 215 256 216 
 217 216 257 
 218 217 258 
 258 220 219 
 218 258 219 
 220 259 221 
 260 222 221 
 261 223 222 
 223 262 224 
 224 263 225 
 225 264 226 
 226 265 227 
 266 228 227 
 228 267 229 
 230 231 190 
 232 191 231 
 232 233 192 
 233 234 193 
 234 235 194 
 235 236 195 
 236 237 196 
 237 238 197 
 239 198 238 
 240 199 239 
 240 241 200 
 242 201 241 
 243 202 242 
 244 203 243 
 245 204 244 
 205 245 246 
 247 206 246 
 248 207 247 
 249 208 248 
 250 209 249 
 251 210 250 
 252 211 251 
 253 212 252 
 254 213 253 
 214 254 255 
 215 255 256 
 257 216 256 
 258 217 257 
 259 220 258 
 259 260 221 
 261 222 260 
 262 223 261 
 262 263 224 
 263 264 225 
 264 265 226 
 265 266 227 
 267 228 266 
 230 268 231 
 269 232 231 
 270 233 232 
 233 271 234 
 272 235 234 
 273 236 235 
 236 274 237 
 275 238 237 
 238 276 239 
 239 277 240 
 241 240 278 
 242 241 279 
 242 280 243 
 243 281 244 
 245 244 282 
 246 245 283 
 247 246 284 
 248 247 285 
 249 248 286 
 287 250 249 
 288 251 250 
 252 251 289 
 253 252 290 
 253 291 254 
 254 292 255 
 255 293 256 
 257 256 294 
 258 257 295 
 258 295 259 
 259 296 260 
 297 261 260 
 262 261 298 
 299 263 262 
 263 300 264 
 264 301 265 
 265 302 266 
 267 266 303 
 304 268 230 
 268 269 231 
 270 232 269 
 271 233 270 
 271 272 234 
 273 235 272 
 274 236 273 
 274 275 237 
 276 238 275 
 276 277 239 
 277 278 240 
 279 241 278 
 242 279 280 
 243 280 281 
 282 244 281 
 283 245 282 
 284 246 283 
 285 247 284 
 286 248 285 
 286 287 249 
 287 288 250 
 289 251 288 
 290 252 289 
 253 290 291 
 254 291 292 
 255 292 293 
 294 256 293 
 295 257 294 
 259 295 296 
 296 297 260 
 298 261 297 
 262 298 299 
 300 263 299 
 300 301 264 
 301 302 265 
 302 303 266 
 267 303 305 
 306 268 304 
 307 269 268 
 269 308 270 
 270 309 271 
 271 310 272 
 311 273 272 
 312 274 273 
 313 275 274 
 314 276 275 
 277 276 315 
 278 277 316 
 279 278 317 
 280 279 318 
 281 280 319 
 281 320 282 
 283 282 321 
 284 283 322 
 323 285 284 
 324 286 285 
 287 286 325 
 288 287 326 
 327 289 288 
 289 328 290 
 329 291 290 
 291 330 292 
 292 331 293 
 294 293 332 
 296 295 294 
 296 333 297 
 334 298 297 
 335 299 298 
 300 299 336 
 337 301 300 
 301 338 302 
 339 303 302 
 303 340 305 
 307 268 306 
 308 269 307 
 308 309 270 
 309 310 271 
 310 311 272 
 312 273 311 
 313 274 312 
 314 275 313 
 315 276 314 
 277 315 316 
 278 316 317 
 318 279 317 
 319 280 318 
 281 319 320 
 321 282 320 
 322 283 321 
 322 323 284 
 323 324 285 
 325 286 324 
 326 287 325 
 326 327 288 
 289 327 328 
 328 329 290 
 291 329 330 
 292 330 331 
 332 293 331 
 296 294 332 
 333 334 297 
 296 332 333 
 335 298 334 
 336 299 335 
 300 336 337 
 338 301 337 
 338 339 302 
 340 303 339 
 306 341 307 
 307 342 308 
 308 343 309 
 344 310 309 
 345 311 310 
 311 346 312 
 312 347 313 
 313 348 314 
 349 315 314 
 315 350 316 
 316 351 317 
 317 352 318 
 319 318 353 
 354 320 319 
 355 321 320 
 356 322 321 
 357 323 322 
 323 358 324 
 325 324 359 
 326 325 360 
 326 361 327 
 327 362 328 
 328 363 329 
 329 364 330 
 330 365 331 
 332 331 366 
 366 334 333 
 332 366 333 
 367 335 334 
 368 336 335 
 369 337 336 
 338 337 370 
 371 339 338 
 339 372 340 
 373 341 306 
 341 342 307 
 342 343 308 
 343 344 309 
 345 310 344 
 346 311 345 
 346 347 312 
 347 348 313 
 348 349 314 
 350 315 349 
 350 351 316 
 351 352 317 
 353 318 352 
 353 354 319 
 354 355 320 
 355 356 321 
 356 357 322 
 323 357 358 
 359 324 358 
 360 325 359 
 326 360 361 
 327 361 362 
 328 362 363 
 329 363 364 
 330 364 365 
 366 331 365 
 367 334 366 
 368 335 367 
 369 336 368 
 370 337 369 
 338 370 371 
 372 339 371 
 372 374 340 
 375 341 373 
 341 376 342 
 342 377 343 
 343 378 344 
 344 379 345 
 345 380 346 
 346 381 347 
 382 348 347 
 348 383 349 
 349 384 350 
 385 351 350 
 386 352 351 
 353 352 387 
 354 353 388 
 355 354 389 
 355 390 356 
 391 357 356 
 358 357 392 
 358 393 359 
 359 394 360 
 395 361 360 
 361 396 362 
 363 362 397 
 363 398 364 
 364 399 365 
 365 400 366 
 400 367 366 
 401 368 367 
 402 369 368 
 370 369 403 
 404 371 370 
 372 371 405 
 406 374 372 
 376 341 375 
 376 377 342 
 377 378 343 
 378 379 344 
 379 380 345 
 380 381 346 
 381 382 347 
 383 348 382 
 383 384 349 
 384 385 350 
 386 351 385 
 387 352 386 
 388 353 387 
 389 354 388 
 355 389 390 
 390 391 356 
 392 357 391 
 358 392 393 
 359 393 394 
 394 395 360 
 361 395 396 
 397 362 396 
 363 397 398 
 364 398 399 
 365 399 400 
 400 401 367 
 402 368 401 
 403 369 402 
 370 403 404 
 405 371 404 
 372 405 406 
 407 374 406 
 375 408 376 
 377 376 409 
 410 378 377 
 411 379 378 
 412 380 379 
 381 380 413 
 381 414 382 
 383 382 415 
 384 383 416 
 385 384 417 
 386 385 418 
 387 386 419 
 420 388 387 
 421 389 388 
 390 389 422 
 391 390 423 
 391 424 392 
 425 393 392 
 426 394 393 
 394 427 395 
 428 396 395 
 396 429 397 
 397 430 398 
 398 431 399 
 400 399 401 
 431 402 401 
 403 402 432 
 433 404 403 
 405 404 434 
 435 406 405 
 407 406 436 
 408 409 376 
 377 409 410 
 411 378 410 
 412 379 411 
 413 380 412 
 381 413 414 
 414 415 382 
 383 415 416 
 384 416 417 
 385 417 418 
 386 418 419 
 387 419 420 
 420 421 388 
 422 389 421 
 423 390 422 
 391 423 424 
 424 425 392 
 425 426 393 
 394 426 427 
 427 428 395 
 396 428 429 
 397 429 430 
 398 430 431 
 431 401 399 
 432 402 431 
 403 432 433 
 434 404 433 
 405 434 435 
 436 406 435 
 437 409 408 
 438 410 409 
 439 411 410 
 411 440 412 
 413 412 441 
 442 414 413 
 443 415 414 
 415 444 416 
 416 445 417 
 417 446 418 
 447 419 418 
 448 420 419 
 420 449 421 
 422 421 450 
 451 423 422 
 452 424 423 
 424 453 425 
 425 454 426 
 455 427 426 
 427 456 428 
 428 457 429 
 429 458 430 
 430 459 431 
 459 432 431 
 460 433 432 
 461 434 433 