TITLE      =  "2D FE Unstructured grid data" 
VARIABLES = "X", "Y", "U", "Dom" 
ZONE T="P1", F=FEPOINT, N= 333 E= 593  ET=TRIANGLE 
 8.820605 5.021739 13.842325 1
 8.722643 4.893626 13.616248 1
 8.893986 4.907285 13.801253 1
 8.833369 4.807293 13.640648 1
 9.678115 2.511569 12.189683 1
 9.574879 2.350617 11.925499 1
 9.721053 2.365102 12.086154 1
 9.111339 3.475663 12.586988 1
 9.189052 3.630861 12.819900 1
 9.037111 3.620797 12.657890 1
 8.541680 4.309810 12.851487 1
 8.655129 4.284656 12.939769 1
 8.563005 4.423867 12.986859 1
 9.739560 3.850509 13.590064 1
 9.820748 3.979503 13.800244 1
 9.701102 4.005759 13.706850 1
 9.252457 3.526508 12.778948 1
 9.077063 2.646301 11.723366 1
 9.210153 2.670109 11.880262 1
 9.084210 2.774578 11.858783 1
 9.204548 2.809502 12.014042 1
 9.130545 5.131914 14.262443 1
 9.106349 4.979466 14.085798 1
 9.232071 5.051641 14.283695 1
 9.087513 3.339667 12.427171 1
 9.026529 3.270177 12.296696 1
 9.144161 3.207373 12.351525 1
 9.543455 2.810024 12.353473 1
 9.543092 2.953604 12.496696 1
 9.423470 2.865226 12.288696 1
 10.000000 3.472222 13.472222 1
 10.000000 3.611111 13.611111 1
 9.854188 3.516792 13.370978 1
 9.892745 3.641623 13.534370 1
 9.493650 4.264837 13.758477 1
 9.630780 4.212965 13.843741 1
 9.569606 4.362883 13.932481 1
 9.701820 4.346334 14.048148 1
 9.789246 2.448795 12.238047 1
 9.792582 4.131754 13.924327 1
 9.182967 3.350452 12.533414 1
 8.678182 4.436863 13.115033 1
 9.655478 5.224209 14.879682 1
 9.658634 5.078186 14.736815 1
 9.803578 5.156919 14.960499 1
 9.763619 4.995296 14.758916 1
 8.363518 4.296433 12.659944 1
 8.446996 4.428215 12.875201 1
 8.857430 3.828493 12.685903 1
 8.906816 3.683397 12.590199 1
 9.000507 3.767156 12.767646 1
 9.144129 4.504739 13.648854 1
 9.057297 4.639683 13.696962 1
 8.979750 4.530584 13.510314 1
 9.565700 4.992430 14.558121 1
 9.521749 5.133544 14.655282 1
 9.440231 4.961960 14.402187 1
 9.429109 2.581689 12.010798 1
 9.342649 2.727676 12.070330 1
 9.300473 2.592718 11.893195 1
 8.289977 3.084625 11.374594 1
 8.203995 3.214273 11.418262 1
 8.182261 3.044488 11.226739 1
 8.883080 4.651967 13.535034 1
 8.990396 5.045081 14.035448 1
 8.993105 3.903397 12.896485 1
 9.570928 2.643228 12.214154 1
 9.666690 2.753694 12.420396 1
 8.512171 3.029562 11.541725 1
 8.501996 2.902117 11.404098 1
 8.635534 3.000477 11.636000 1
 8.499805 4.198955 12.698745 1
 8.602221 3.469974 12.072179 1
 8.556871 3.586126 12.142985 1
 8.437001 3.520203 11.957192 1
 8.632577 2.858719 11.491282 1
 9.287970 3.215673 12.503630 1
 8.462506 3.635818 12.098310 1
 8.570185 3.698988 12.269162 1
 8.418548 3.747811 12.166349 1
 8.578001 3.849503 12.427492 1
 8.461940 3.408179 11.870103 1
 9.656452 4.903107 14.559550 1
 9.331159 3.351627 12.682776 1
 9.454902 3.848161 13.303045 1
 9.314283 3.848248 13.162516 1
 9.434791 3.702993 13.137770 1
 9.291065 3.714597 13.005651 1
 9.365487 4.864355 14.229824 1
 9.463585 4.799226 14.262802 1
 9.192173 2.523767 11.715936 1
 10.000000 2.500000 12.500000 1
 10.000000 2.638889 12.638889 1
 9.843488 2.564197 12.407686 1
 8.652964 3.332888 11.985835 1
 8.745855 3.392673 12.138515 1
 8.746016 3.500659 12.246657 1
 9.421269 2.339659 11.760930 1
 9.438756 2.449300 11.888050 1
 9.545782 4.888039 14.433811 1
 8.982921 4.773951 13.756853 1
 8.638648 3.969128 12.607765 1
 8.518836 3.956628 12.475447 1
 8.920476 3.021576 11.942041 1
 8.855284 3.136485 11.991758 1
 8.782388 3.023703 11.806078 1
 8.719112 3.129190 11.848289 1
 9.449391 3.039363 12.488749 1
 8.917796 2.615546 11.533332 1
 9.044215 2.523352 11.567562 1
 9.884130 3.862222 13.746349 1
 8.791578 4.266639 13.058198 1
 8.735228 4.162879 12.898091 1
 8.901535 4.154629 13.056152 1
 8.927892 3.522048 12.449921 1
 9.902959 2.703294 12.606256 1
 8.303676 3.298969 11.602628 1
 8.225669 3.402265 11.627920 1
 8.393827 2.992672 11.386489 1
 8.366385 2.871074 11.237448 1
 8.892035 3.981842 12.873857 1
 9.009155 4.033360 13.042493 1
 9.185892 4.630215 13.816090 1
 9.595148 3.911410 13.506545 1
 9.261940 4.191768 13.453690 1
 9.137074 4.064754 13.201814 1
 9.294507 4.016786 13.311278 1
 9.013980 4.902018 13.915979 1
 9.661263 2.881736 12.542995 1
 9.164279 4.330723 13.494985 1
 9.119013 4.198482 13.317473 1
 8.799227 3.695459 12.494668 1
 9.201405 4.935510 14.136899 1
 8.791797 4.408943 13.200727 1
 10.000000 2.083333 12.083333 1
 10.000000 2.222222 12.222222 1
 9.869110 2.155257 12.024363 1
 9.538357 2.507281 12.045640 1
 9.795480 2.705582 12.501059 1
 9.691846 2.643283 12.335128 1
 9.697988 2.218618 11.916602 1
 9.896333 4.076138 13.972468 1
 9.731742 3.404548 13.136289 1
 9.595600 3.461062 13.056663 1
 9.617782 3.328546 12.946326 1
 9.484823 3.377062 12.861876 1
 8.365952 2.673563 11.039505 1
 8.237949 2.582546 10.820492 1
 8.406985 2.544760 10.951737 1
 9.010417 4.264057 13.274455 1
 9.024271 4.401928 13.426177 1
 8.334949 3.194570 11.529504 1
 8.962798 2.763805 11.726597 1
 9.596484 3.754119 13.350588 1
 9.544909 3.601026 13.145926 1
 9.696916 3.536094 13.233004 1
 9.843989 4.287328 14.131320 1
 9.836925 4.437894 14.274817 1
 9.314569 4.342330 13.656893 1
 8.751380 4.564247 13.315614 1
 8.861794 4.526571 13.388350 1
 8.695585 3.615175 12.310741 1
 8.902892 4.323374 13.226248 1
 9.774709 2.930579 12.705282 1
 9.830764 3.057855 12.888617 1
 9.671414 3.023718 12.695139 1
 9.905188 2.023133 11.928323 1
 9.370563 3.484943 12.855496 1
 8.706083 3.761477 12.467546 1
 9.268643 4.448486 13.717111 1
 9.642103 3.181105 12.823208 1
 9.752715 3.139652 12.892365 1
 9.735064 3.290539 13.025595 1
 9.659159 3.651117 13.310264 1
 8.547351 2.765906 11.313253 1
 8.642417 2.630529 11.272933 1
 8.666471 2.749717 11.416179 1
 8.808000 4.066500 12.874480 1
 8.343011 3.622439 11.965441 1
 9.867215 3.358270 13.225477 1
 9.338692 2.983404 12.322092 1
 9.569804 4.571433 14.141230 1
 9.660564 4.490055 14.150615 1
 9.656548 4.656291 14.312833 1
 9.775171 4.579339 14.354502 1
 9.252267 3.424379 12.676638 1
 8.499480 2.649626 11.149101 1
 9.587584 4.065104 13.652670 1
 9.477521 4.131865 13.609377 1
 8.486609 3.217386 11.703982 1
 8.413008 3.308919 11.721914 1
 10.000000 3.333333 13.333333 1
 8.578949 3.131859 11.710793 1
 8.421050 3.111072 11.532112 1
 8.822588 3.578330 12.400903 1
 9.308034 2.864636 12.172668 1
 9.370858 4.135249 13.506096 1
 8.542651 3.328246 11.870887 1
 9.463327 2.712473 12.175804 1
 9.893568 5.066491 14.960054 1
 9.007729 3.134118 12.141834 1
 9.681722 4.117604 13.799315 1
 9.726391 3.722780 13.449162 1
 10.000000 3.055556 13.055556 1
 9.896259 2.958136 12.854402 1
 9.024781 2.865752 11.890533 1
 8.925119 2.901931 11.827043 1
 8.856956 2.819974 11.676924 1
 9.088025 3.957970 13.045973 1
 9.197598 3.915571 13.113151 1
 9.791840 2.029161 11.820997 1
 8.432581 3.883755 12.316320 1
 9.267573 3.080878 12.348455 1
 9.146122 3.040666 12.186786 1
 9.486578 3.959123 13.445676 1
 9.104176 3.726347 12.830500 1
 9.389493 3.941152 13.330627 1
 8.697927 4.067390 12.765301 1
 8.621064 4.148262 12.769310 1
 8.538924 4.070376 12.609290 1
 9.408763 4.670970 14.079727 1
 9.303288 4.563451 13.866721 1
 9.457863 4.560836 14.018683 1
 9.392477 4.455444 13.847905 1
 8.717920 3.878421 12.596328 1
 8.860596 2.725816 11.586407 1
 8.754113 2.811574 11.565681 1
 8.764432 4.697741 13.462164 1
 8.913311 3.256656 12.169955 1
 9.124958 4.842820 13.967763 1
 8.770854 3.259098 12.029934 1
 8.711639 4.780706 13.492328 1
 8.721547 2.928189 11.649722 1
 8.644530 3.228079 11.872592 1
 8.648938 4.663811 13.312729 1
 8.508940 4.682758 13.191689 1
 8.535851 4.550630 13.086472 1
 8.912887 4.440127 13.353002 1
 9.035439 4.143056 13.178477 1
 9.851737 3.745319 13.597046 1
 8.773985 2.662411 11.436388 1
 8.688021 5.006658 13.694664 1
 10.000000 2.777778 12.777778 1
 10.000000 2.916667 12.916667 1
 9.875825 2.830022 12.705849 1
 9.894982 3.155647 13.050632 1
 8.264857 2.953717 11.218565 1
 10.000000 4.444445 14.444445 1
 9.895347 4.543991 14.439339 1
 10.000000 3.750000 13.750000 1
 9.397194 4.033442 13.430622 1
 8.972569 3.394670 12.367236 1
 8.846900 3.345389 12.192276 1
 8.434777 2.774361 11.209126 1
 9.491364 3.504400 12.995757 1
 9.526664 3.231197 12.757866 1
 9.097701 3.842282 12.939962 1
 9.548377 3.097301 12.645676 1
 10.000000 4.305555 14.305555 1
 9.896297 4.188107 14.084396 1
 10.000000 3.888889 13.888889 1
 9.328944 3.606921 12.935854 1
 9.785014 3.612837 13.397853 1
 8.138584 2.715771 10.854342 1
 8.258897 2.715691 10.974587 1
 9.289888 4.673587 13.963465 1
 9.515800 4.473945 13.989735 1
 10.000000 4.861111 14.861111 1
 10.000000 5.000000 15.000000 1
 9.878259 4.909756 14.788006 1
 10.000000 4.583333 14.583333 1
 10.000000 4.722222 14.722221 1
 9.880175 4.672441 14.552613 1
 9.114153 4.730761 13.844898 1
 10.000000 2.361111 12.361111 1
 9.892401 2.436659 12.329063 1
 9.895423 2.288904 12.184324 1
 9.030814 2.984897 12.015704 1
 9.407244 3.254211 12.661452 1
 8.228585 2.822122 11.050702 1
 9.918821 4.368527 14.287352 1
 10.000000 5.138889 15.138889 1
 9.914859 5.194705 15.109562 1
 10.000000 4.166667 14.166667 1
 8.469175 4.823543 13.292706 1
 8.601311 4.799692 13.400992 1
 9.230813 2.937374 12.168187 1
 9.832903 3.240989 13.073888 1
 8.856175 3.448032 12.304189 1
 9.758629 2.819886 12.578514 1
 9.334420 4.761513 14.095925 1
 9.811171 2.366446 12.177620 1
 8.817172 2.915550 11.732712 1
 9.202797 3.783251 12.986031 1
 9.363633 3.128230 12.491855 1
 9.383889 4.243562 13.627433 1
 9.734552 4.243294 13.977837 1
 9.444994 4.357610 13.802595 1
 9.113731 2.401212 11.514942 1
 9.752971 2.126009 11.878975 1
 9.531137 4.677654 14.208780 1
 10.000000 4.027778 14.027779 1
 9.328279 2.460347 11.788626 1
 9.457596 3.154818 12.612411 1
 9.217078 4.741789 13.958854 1
 9.261843 4.849654 14.111476 1
 9.602942 4.783470 14.386403 1
 9.717548 4.796529 14.514076 1
 10.000000 3.194444 13.194444 1
 8.651186 4.533991 13.185170 1
 9.763075 4.695080 14.458147 1
 9.120214 2.902128 12.022329 1
 8.589025 4.907459 13.496468 1
 9.312048 2.352547 11.664589 1
 9.229127 2.416507 11.645636 1
 9.644619 2.075948 11.720573 1
 9.816274 4.791667 14.607935 1
 9.921261 4.791667 14.712933 1
 9.791131 2.269420 12.060553 1
 9.435319 3.593017 13.028330 1
 8.780659 3.965343 12.745983 1
 8.330919 2.771362 11.102273 1
 10.000000 1.944444 11.944444 1
 9.310996 4.960452 14.271439 1
 9.864987 1.903467 11.768454 1
 9.763405 4.883244 14.646644 1
 8.280723 3.514709 11.795424 1
 8.426278 4.109686 12.535954 1
 8.420769 4.007967 12.428725 1
 10.000000 5.277778 15.277779 1
 9.919020 3.256537 13.175556 1
 9.926762 3.958333 13.885087 1
 8.348223 3.406164 11.754379 1
 1 2 3 
 3 2 4 
 5 6 7 
 8 9 10 
 11 12 13 
 14 15 16 
 17 9 8 
 18 19 20 
 20 19 21 
 22 23 24 
 25 26 27 
 28 29 30 
 31 32 33 
 32 34 33 
 35 36 37 
 38 37 36 
 5 7 39 
 40 16 15 
 41 25 27 
 13 12 42 
 43 44 45 
 46 45 44 
 47 11 48 
 49 50 51 
 52 53 54 
 55 56 57 
 58 59 60 
 61 62 63 
 64 54 53 
 1 3 65 
 49 51 66 
 28 67 68 
 69 70 71 
 47 72 11 
 73 74 75 
 70 76 71 
 77 41 27 
 78 79 80 
 81 80 79 
 82 73 75 
 55 83 44 
 77 84 41 
 85 86 87 
 88 87 86 
 89 90 57 
 91 19 18 
 92 93 94 
 21 19 59 
 95 96 73 
 73 96 97 
 98 6 99 
 90 100 57 
 64 53 101 
 81 102 103 
 104 105 106 
 107 106 105 
 29 108 30 
 109 110 18 
 14 111 15 
 112 113 114 
 115 10 50 
 93 116 94 
 117 118 62 
 59 19 60 
 46 44 83 
 69 119 70 
 120 70 119 
 49 66 121 
 122 121 66 
 52 123 53 
 14 16 124 
 125 126 127 
 128 65 3 
 28 129 29 
 125 130 131 
 49 132 50 
 133 24 23 
 42 12 134 
 135 136 137 
 5 138 6 
 125 131 126 
 139 140 94 
 5 94 140 
 141 7 6 
 40 15 142 
 143 144 145 
 146 145 144 
 147 148 149 
 150 130 151 
 52 151 130 
 61 152 62 
 109 18 153 
 85 154 124 
 155 144 156 
 38 157 158 
 125 159 130 
 160 134 161 
 162 73 97 
 112 114 163 
 164 165 166 
 14 124 154 
 22 65 23 
 135 137 167 
 146 168 84 
 162 169 79 
 81 79 169 
 52 130 170 
 171 172 173 
 155 156 174 
 175 176 177 
 178 114 113 
 78 80 179 
 31 33 180 
 181 30 108 
 182 183 184 
 185 184 183 
 17 8 186 
 41 186 8 
 187 176 175 
 64 101 4 
 188 36 189 
 35 189 36 
 171 173 145 
 190 191 152 
 192 31 180 
 69 193 194 
 190 194 193 
 67 140 68 
 115 50 195 
 91 18 110 
 42 134 160 
 6 138 99 
 21 59 196 
 50 10 51 
 55 44 56 
 139 94 116 
 125 127 197 
 38 158 183 
 185 183 158 
 82 198 73 
 95 73 198 
 58 199 59 
 46 200 45 
 104 201 105 
 40 202 16 
 14 154 203 
 5 67 138 
 58 138 67 
 17 186 168 
 190 152 194 
 130 159 170 
 204 165 205 
 206 207 153 
 208 153 207 
 122 66 209 
 122 114 121 
 178 121 114 
 155 154 87 
 85 87 154 
 52 54 151 
 49 169 132 
 150 163 114 
 210 86 127 
 211 167 137 
 81 212 80 
 77 27 213 
 214 213 27 
 188 189 215 
 154 174 203 
 216 51 10 
 86 217 127 
 218 219 220 
 112 134 12 
 102 218 220 
 221 222 223 
 224 223 222 
 81 225 102 
 226 208 227 
 168 186 84 
 64 4 228 
 105 201 229 
 128 101 230 
 107 105 231 
 2 232 4 
 214 27 201 
 26 229 201 
 233 71 76 
 28 30 199 
 59 199 30 
 190 234 198 
 235 236 237 
 238 161 134 
 165 172 166 
 78 75 74 
 164 205 165 
 150 131 130 
 122 126 239 
 14 240 111 
 241 226 227 
 2 1 242 
 243 244 245 
 204 246 165 
 224 222 170 
 120 119 247 
 43 56 44 
 248 249 158 
 4 101 3 
 219 12 72 
 11 72 12 
 210 126 209 
 122 209 126 
 250 111 240 
 52 222 123 
 5 39 94 
 128 3 101 
 251 215 189 
 115 252 8 
 105 229 231 
 253 231 229 
 81 103 212 
 120 254 70 
 146 255 168 
 38 183 37 
 171 145 256 
 216 10 9 
 216 257 51 
 171 256 258 
 64 161 54 
 102 220 103 
 210 127 126 
 162 97 195 
 259 157 260 
 150 151 163 
 238 163 151 
 107 71 106 
 235 160 228 
 64 228 160 
 61 247 119 
 250 261 111 
 17 168 262 
 263 33 34 
 264 148 265 
 143 33 156 
 263 156 33 
 147 149 187 
 221 266 222 
 37 183 267 
 233 106 71 
 162 74 73 
 81 169 225 
 188 215 124 
 268 269 270 
 271 272 273 
 185 158 249 
 52 170 222 
 26 201 27 
 101 274 230 
 188 124 16 
 55 57 100 
 58 67 199 
 155 174 154 
 190 193 234 
 275 276 277 
 214 201 278 
 5 140 67 
 77 279 84 
 28 199 67 
 120 247 280 
 143 180 33 
 248 158 281 
 92 94 276 
 177 176 241 
 224 170 159 
 115 8 10 
 282 283 200 
 244 204 205 
 284 259 260 
 177 241 227 
 285 236 286 
 235 286 236 
 48 13 237 
 181 213 287 
 214 287 213 
 182 267 183 
 288 173 172 
 250 240 34 
 41 8 25 
 97 289 195 
 147 187 254 
 139 68 140 
 290 164 129 
 68 290 129 
 117 152 191 
 88 262 87 
 136 277 137 
 244 205 245 
 221 90 291 
 89 291 90 
 85 124 215 
 292 277 276 
 269 282 200 
 28 68 129 
 104 106 293 
 216 294 257 
 181 108 295 
 104 293 207 
 35 296 189 
 66 51 257 
 248 271 249 
 38 297 157 
 88 294 9 
 216 9 294 
 267 224 298 
 189 296 197 
 181 295 213 
 292 39 7 
 91 110 299 
 146 84 279 
 211 137 300 
 32 250 34 
 146 144 255 
 11 13 48 
 37 267 298 
 182 301 223 
 46 270 200 
 91 60 19 
 45 200 283 
 88 86 294 
 210 294 86 
 302 284 142 
 91 303 60 
 58 303 99 
 304 258 256 
 143 173 180 
 164 245 205 
 305 306 230 
 133 230 306 
 104 278 201 
 126 131 239 
 41 84 186 
 251 197 127 
 49 225 169 
 162 132 169 
 238 151 54 
 115 195 289 
 269 200 270 
 162 79 74 
 128 23 65 
 35 37 298 
 307 184 308 
 95 198 234 
 204 309 246 
 143 156 144 
 235 237 310 
 184 311 308 
 146 256 145 
 21 312 20 
 221 223 301 
 53 274 101 
 58 99 138 
 40 157 297 
 235 310 160 
 271 273 249 
 42 160 310 
 58 60 303 
 171 166 172 
 143 145 173 
 235 232 286 
 98 99 303 
 40 260 157 
 285 286 313 
 98 303 314 
 91 315 303 
 158 157 281 
 259 281 157 
 185 249 273 
 211 300 316 
 141 316 300 
 224 159 298 
 237 13 310 
 125 296 159 
 288 180 173 
 42 310 13 
 109 226 241 
 243 245 116 
 139 116 245 
 147 265 148 
 188 202 36 
 38 36 297 
 17 262 9 
 88 9 262 
 181 287 196 
 64 160 161 
 136 275 277 
 317 318 270 
 268 270 318 
 275 92 276 
 2 242 313 
 133 23 230 
 128 230 23 
 155 255 144 
 206 20 312 
 272 318 273 
 317 273 318 
 235 228 232 
 263 174 156 
 117 62 152 
 61 119 194 
 104 207 278 
 206 278 207 
 263 34 240 
 137 319 300 
 150 114 239 
 14 203 240 
 263 240 203 
 141 300 319 
 87 262 320 
 139 290 68 
 181 196 30 
 264 265 280 
 171 258 166 
 29 166 258 
 251 127 217 
 102 321 218 
 182 184 301 
 107 193 71 
 120 280 322 
 69 194 119 
 238 54 161 
 21 287 312 
 284 260 142 
 221 291 266 
 288 172 246 
 165 246 172 
 109 153 226 
 214 312 287 
 139 245 290 
 21 196 287 
 317 311 273 
 185 273 311 
 78 74 79 
 323 135 167 
 112 163 134 
 238 134 163 
 70 254 175 
 133 324 24 
 26 252 229 
 253 229 252 
 206 153 20 
 18 20 153 
 155 87 320 
 323 167 325 
 164 290 245 
 122 239 114 
 69 71 193 
 112 12 113 
 219 113 12 
 317 270 326 
 46 326 270 
 107 231 234 
 93 243 116 
 78 179 75 
 327 75 179 
 107 234 193 
 4 232 228 
 77 295 279 
 211 325 167 
 115 289 252 
 253 252 289 
 307 90 301 
 164 166 129 
 29 129 166 
 304 279 295 
 61 194 152 
 221 301 90 
 328 329 220 
 103 220 329 
 259 248 281 
 282 330 283 
 53 123 274 
 305 274 123 
 150 239 131 
 309 192 331 
 188 16 202 
 162 195 132 
 307 301 184 
 102 225 321 
 208 226 153 
 253 96 231 
 95 231 96 
 8 252 25 
 272 268 318 
 36 202 297 
 40 297 202 
 261 302 332 
 305 291 306 
 89 306 291 
 305 230 274 
 146 279 256 
 2 286 232 
 26 25 252 
 2 313 286 
 214 278 312 
 304 256 279 
 117 333 118 
 327 118 333 
 192 180 331 
 307 308 83 
 103 329 212 
 85 217 86 
 95 234 231 
 178 218 321 
 185 311 184 
 89 324 306 
 133 306 324 
 59 30 196 
 328 220 72 
 219 72 220 
 288 331 180 
 302 142 332 
 15 332 142 
 307 100 90 
 263 203 174 
 82 191 198 
 190 198 191 
 89 57 324 
 304 295 108 
 97 96 289 
 253 289 96 
 147 254 322 
 77 213 295 
 46 83 326 
 292 276 39 
 94 39 276 
 40 142 260 
 307 83 100 
 91 299 315 
 327 333 75 
 82 75 333 
 55 100 83 
 137 277 319 
 187 175 254 
 305 123 266 
 222 266 123 
 177 76 175 
 70 175 76 
 61 63 247 
 292 319 277 
 233 293 106 
 117 191 333 
 82 333 191 
 50 132 195 
 206 312 278 
 210 257 294 
 251 189 197 
 49 121 321 
 120 322 254 
 168 320 262 
 219 218 113 
 208 293 227 
 233 227 293 
 83 308 326 
 85 215 217 
 251 217 215 
 147 322 265 
 159 296 298 
 125 197 296 
 261 332 111 
 15 111 332 
 178 321 121 
 49 321 225 
 29 258 108 
 304 108 258 
 177 227 76 
 233 76 227 
 292 7 319 
 305 266 291 
 208 207 293 
 141 319 7 
 288 246 331 
 317 308 311 
 35 298 296 
 309 331 246 
 303 315 314 
 155 320 255 
 168 255 320 
 66 257 209 
 210 209 257 
 224 267 223 
 182 223 267 
 178 113 218 
 280 265 322 
 317 326 308 
