TITLE      =  "2D FE Unstructured grid data" 
VARIABLES = "X", "Y", "U", "Dom" 
ZONE T="P1", F=FEPOINT, N= 290 E= 515  ET=TRIANGLE 
 0.804761 8.931736 9.736534 1
 0.883450 9.033758 9.917242 1
 0.731714 9.012262 9.744003 1
 0.813117 9.117463 9.930605 1
 2.511587 9.677944 12.189548 1
 2.365838 9.722083 12.087931 1
 2.355013 9.581230 11.936269 1
 0.586217 8.671837 9.258087 1
 0.717139 8.653090 9.370266 1
 0.688054 8.781419 9.469514 1
 0.600051 9.442334 10.042400 1
 0.625002 9.593052 10.218068 1
 0.495180 9.502041 9.997230 1
 2.232544 9.342650 11.575238 1
 2.231482 9.477139 11.708652 1
 2.118436 9.423791 11.542250 1
 0.441684 9.357429 9.799131 1
 0.279594 9.434204 9.713802 1
 0.296961 9.314909 9.611884 1
 0.376853 9.485054 9.861911 1
 0.858725 8.722531 9.581298 1
 1.021079 8.803075 9.824201 1
 0.926489 8.895859 9.822389 1
 0.722314 9.520363 10.242695 1
 2.456092 9.784729 12.240834 1
 1.666667 10.000000 11.666667 1
 1.527778 10.000000 11.527778 1
 1.576167 9.835144 11.411318 1
 1.805556 10.000000 11.805556 1
 1.737316 9.870559 11.607877 1
 1.903461 9.864985 11.768458 1
 1.508334 8.189949 9.698342 1
 1.644398 8.157336 9.801804 1
 1.585124 8.273692 9.858880 1
 1.707647 8.287313 9.995022 1
 1.761035 8.899155 10.660238 1
 1.870443 8.844454 10.714948 1
 1.824499 9.015575 10.840115 1
 1.085593 8.281207 9.366848 1
 1.211066 8.256941 9.468061 1
 1.196026 8.392241 9.588319 1
 2.339659 9.421269 11.760964 1
 1.388889 10.000000 11.388889 1
 1.286949 9.850028 11.136984 1
 1.458333 9.900642 11.358976 1
 0.000000 9.166667 9.166667 1
 0.123921 9.056075 9.179996 1
 0.118748 9.221499 9.340250 1
 0.833333 10.000000 10.833333 1
 0.771428 9.881005 10.652431 1
 0.952749 9.878537 10.831289 1
 0.511959 9.611855 10.123817 1
 0.803698 9.649410 10.453128 1
 0.678018 9.708518 10.386543 1
 1.616130 9.365771 10.981931 1
 1.769831 9.294094 11.063952 1
 1.730980 9.435247 11.166253 1
 0.261602 9.600441 9.862048 1
 1.189201 8.795759 9.985001 1
 1.113182 8.680849 9.794076 1
 0.758679 8.431259 9.189979 1
 0.733248 8.305851 9.039142 1
 0.866699 8.310026 9.176765 1
 1.696259 8.602985 10.299298 1
 1.803862 8.695800 10.499727 1
 1.657487 8.728475 10.386019 1
 1.494142 8.765318 10.259510 1
 1.645896 8.843415 10.489366 1
 1.564363 8.918695 10.483099 1
 1.317680 8.269543 9.587276 1
 1.451239 8.326179 9.777475 1
 1.309117 8.378160 9.687330 1
 1.066928 8.429412 9.496393 1
 0.191461 9.510171 9.701641 1
 1.398905 8.200853 9.599821 1
 1.103121 8.910573 10.013740 1
 1.767289 8.201658 9.969014 1
 1.592797 9.097786 10.690621 1
 1.669018 9.221201 10.890255 1
 1.548165 9.241406 10.789602 1
 0.577212 8.273679 8.850924 1
 0.616477 8.393044 9.009542 1
 0.473950 8.361743 8.835714 1
 0.795406 8.565123 9.360561 1
 0.908448 8.586155 9.494641 1
 0.411077 9.591169 10.002252 1
 1.250000 10.000000 11.250000 1
 0.000000 8.750000 8.750000 1
 0.000000 8.611111 8.611111 1
 0.149972 8.713051 8.863035 1
 0.546415 8.787341 9.333781 1
 0.990099 8.657994 9.648134 1
 0.142591 9.655199 9.797793 1
 0.283525 9.728330 10.011859 1
 1.464331 9.149743 10.614108 1
 1.402143 8.440618 9.842815 1
 0.196901 9.803100 10.000003 1
 1.965205 8.701877 10.667145 1
 1.431722 9.788975 11.220708 1
 1.492050 9.689928 11.181997 1
 1.728744 8.439555 10.168362 1
 1.596820 8.391994 9.988872 1
 0.864869 8.475965 9.340876 1
 1.561748 8.649764 10.211572 1
 1.608491 9.667698 11.276207 1
 0.526764 8.467170 8.993962 1
 0.293526 8.784400 9.077937 1
 0.441780 8.860373 9.302176 1
 0.333250 8.930343 9.263597 1
 1.287874 8.131318 9.419245 1
 1.181810 8.551363 9.733220 1
 1.220491 8.689522 9.910065 1
 1.596348 8.519858 10.116267 1
 1.544884 8.074590 9.619542 1
 2.218618 9.697988 11.916630 1
 2.203887 9.583989 11.787899 1
 1.334896 9.444846 10.779773 1
 1.348866 9.335640 10.684534 1
 1.469599 9.466022 10.935640 1
 2.222222 10.000000 12.222222 1
 2.083333 10.000000 12.083333 1
 2.155257 9.869110 12.024375 1
 1.497565 9.348309 10.845901 1
 1.071089 8.570249 9.641377 1
 1.684391 8.982583 10.667020 1
 1.361718 8.903855 10.265610 1
 1.337824 8.769677 10.107551 1
 1.458961 8.869428 10.328439 1
 2.023131 9.905187 11.928328 1
 0.356034 9.675016 10.031054 1
 1.802797 9.755301 11.558117 1
 0.211318 9.131266 9.342590 1
 0.294735 9.054495 9.349238 1
 0.369858 9.189230 9.559100 1
 2.138381 9.518966 11.657367 1
 0.529079 9.213453 9.742548 1
 0.983326 8.514839 9.498217 1
 0.864530 9.786017 10.650557 1
 0.435687 8.704444 9.140142 1
 0.981902 8.191603 9.173553 1
 1.144988 8.142914 9.287952 1
 0.694444 10.000000 10.694444 1
 0.555556 10.000000 10.555556 1
 0.632514 9.850994 10.483521 1
 0.000000 9.444445 9.444445 1
 0.000000 9.305555 9.305555 1
 0.147830 9.363488 9.511330 1
 0.714316 9.402905 10.117247 1
 0.229289 9.240767 9.470066 1
 1.247027 9.296149 10.543206 1
 1.236969 9.439577 10.676572 1
 1.445282 9.003757 10.449087 1
 0.191008 8.946526 9.137546 1
 1.838712 9.384990 11.223729 1
 1.918479 9.271042 11.189556 1
 1.973748 9.426676 11.400452 1
 2.070018 9.313602 11.383661 1
 0.712002 9.129732 9.841765 1
 0.832334 8.181274 9.013644 1
 1.894796 8.283788 10.178646 1
 1.796368 8.333261 10.129697 1
 0.636902 8.530614 9.167550 1
 0.817945 9.228610 10.046584 1
 0.705682 9.281222 9.986936 1
 1.687356 9.755663 11.443031 1
 0.487094 9.909638 10.396733 1
 0.086995 9.513889 9.600885 1
 1.818970 9.167747 10.986753 1
 1.952648 9.115278 11.067972 1
 1.212820 9.693766 10.906601 1
 1.355126 9.675912 11.031050 1
 0.830477 9.369934 10.200438 1
 0.838538 9.499920 10.338477 1
 0.493726 8.971506 9.465251 1
 0.404042 9.048648 9.452702 1
 0.000000 9.722222 9.722222 1
 0.000000 9.583333 9.583333 1
 0.416667 10.000000 10.416667 1
 0.277778 10.000000 10.277778 1
 0.347068 9.865978 10.213053 1
 0.804992 8.836111 9.641138 1
 0.390550 8.588207 8.978773 1
 0.499662 8.572626 9.072309 1
 1.154797 9.368364 10.523195 1
 1.944444 10.000000 11.944444 1
 2.084858 8.479953 10.564880 1
 2.011927 8.365358 10.377355 1
 2.177634 8.374730 10.552440 1
 0.598355 8.906145 9.504524 1
 2.029161 9.791840 11.821017 1
 1.497397 8.567036 10.064483 1
 0.984513 8.316355 9.300914 1
 1.030836 9.115532 10.146402 1
 1.126290 9.230981 10.357306 1
 1.010762 9.226134 10.236928 1
 0.693256 8.164474 8.857764 1
 0.972222 10.000000 10.972222 1
 0.000000 9.027778 9.027778 1
 0.492241 9.801861 10.294105 1
 2.018899 9.223706 11.242646 1
 1.004662 8.995338 10.000039 1
 1.878052 8.432953 10.311072 1
 1.824728 8.560706 10.385489 1
 1.747745 8.802259 10.550051 1
 1.155032 9.125547 10.280617 1
 1.623189 9.519094 11.142303 1
 0.964521 9.713545 10.678072 1
 0.954280 9.592237 10.546528 1
 1.942917 9.574646 11.517590 1
 2.075941 9.644622 11.720583 1
 1.928411 9.705174 11.633597 1
 1.263118 8.884799 10.147963 1
 2.564223 9.843437 12.407670 1
 0.210358 8.569089 8.779461 1
 0.299041 8.656504 8.955552 1
 1.058497 9.815688 10.874197 1
 2.106870 8.283138 10.390084 1
 0.930620 9.294585 10.225241 1
 0.973801 9.436555 10.410374 1
 1.054995 9.315080 10.370101 1
 1.205404 8.976017 10.181458 1
 0.633174 9.197259 9.830459 1
 0.592068 9.076138 9.668223 1
 0.564581 9.714310 10.278897 1
 0.213930 8.846450 9.060390 1
 2.037016 9.517852 11.554892 1
 0.953595 8.408203 9.361841 1
 1.713748 9.647942 11.361712 1
 1.746946 9.550308 11.297279 1
 0.000000 10.000000 10.000000 1
 0.000000 9.861111 9.861111 1
 0.107824 9.892176 10.000001 1
 0.138889 10.000000 10.138889 1
 1.151346 9.895024 11.046375 1
 0.106092 8.849491 8.955591 1
 2.361111 10.000000 12.361111 1
 2.288904 9.895423 12.184339 1
 2.436661 9.892396 12.329065 1
 1.358403 9.543875 10.902300 1
 1.443864 9.592309 11.036192 1
 0.911069 9.174496 10.085602 1
 1.887306 8.627846 10.515210 1
 2.500000 10.000000 12.500000 1
 1.062614 9.535784 10.598422 1
 1.717935 9.096978 10.814948 1
 2.015341 8.240054 10.255464 1
 1.311718 8.993432 10.305188 1
 1.831896 9.622097 11.454008 1
 1.853158 9.498068 11.351252 1
 0.759233 9.770711 10.529950 1
 1.258936 9.570167 10.829122 1
 0.480838 9.114609 9.595467 1
 0.389819 9.757821 10.147644 1
 1.153550 9.786070 10.939636 1
 1.346873 9.100210 10.447119 1
 2.366446 9.811171 12.177624 1
 0.091278 9.780123 9.871397 1
 0.213692 9.912251 10.125940 1
 1.301408 8.605935 9.907394 1
 1.426698 8.649664 10.076411 1
 0.599666 9.312307 9.911984 1
 1.076383 9.418751 10.495167 1
 2.126009 9.752971 11.878989 1
 1.974128 8.457271 10.431465 1
 1.079324 9.680214 10.759550 1
 0.000000 8.888889 8.888889 1
 1.111111 10.000000 11.111111 1
 0.309136 8.508445 8.817589 1
 1.955428 8.552999 10.508488 1
 1.534460 9.581480 11.115956 1
 1.345869 9.212654 10.558555 1
 1.444916 9.260551 10.705500 1
 0.719683 8.890155 9.609869 1
 1.142776 9.493199 10.636004 1
 1.149933 9.600081 10.750028 1
 1.429399 8.087277 9.516737 1
 1.404965 8.536551 9.941568 1
 1.305023 8.488237 9.793316 1
 2.269420 9.791131 12.060564 1
 0.418376 8.475342 8.893733 1
 1.117910 9.027727 10.145677 1
 0.455960 9.693076 10.149041 1
 1.497119 8.467815 9.964991 1
 1.229989 9.066641 10.296665 1
 2.207673 8.252357 10.460106 1
 0.084204 8.953752 9.037963 1
 1.047968 9.918360 10.966331 1
 1.242998 9.176913 10.419940 1
 2.113444 8.183642 10.297164 1
 2.213852 8.122400 10.336327 1
 1 2 3 
 2 4 3 
 5 6 7 
 8 9 10 
 11 12 13 
 14 15 16 
 17 18 19 
 20 18 17 
 21 22 23 
 11 24 12 
 5 25 6 
 26 27 28 
 29 30 31 
 32 33 34 
 35 34 33 
 36 37 38 
 39 40 41 
 42 15 14 
 43 44 45 
 46 47 48 
 49 50 51 
 52 13 12 
 24 53 12 
 12 53 54 
 55 56 57 
 20 58 18 
 59 22 60 
 61 62 63 
 64 65 66 
 67 68 69 
 70 71 72 
 67 66 68 
 39 41 73 
 74 18 58 
 70 75 71 
 59 76 22 
 35 33 77 
 78 79 80 
 81 82 83 
 21 84 85 
 20 86 58 
 43 87 44 
 88 89 90 
 8 10 91 
 55 79 56 
 21 92 22 
 93 58 94 
 78 80 95 
 96 72 71 
 21 9 84 
 97 93 94 
 98 37 65 
 99 100 28 
 35 101 102 
 61 63 103 
 64 66 104 
 105 28 100 
 106 83 82 
 107 108 109 
 110 70 40 
 60 111 112 
 64 104 113 
 32 114 33 
 115 116 7 
 21 10 9 
 117 118 119 
 120 121 122 
 119 118 123 
 115 7 6 
 124 111 60 
 78 69 125 
 126 127 128 
 121 129 122 
 130 58 86 
 131 31 30 
 132 133 134 
 135 16 15 
 136 17 134 
 19 134 17 
 124 92 137 
 99 45 44 
 35 102 34 
 132 48 47 
 138 51 50 
 99 28 45 
 107 139 108 
 85 137 92 
 39 140 141 
 142 143 144 
 145 146 147 
 27 45 28 
 11 148 24 
 26 28 30 
 41 40 72 
 67 128 127 
 132 134 149 
 150 118 151 
 67 69 128 
 78 152 69 
 69 68 125 
 153 133 47 
 154 155 156 
 157 156 155 
 158 3 4 
 159 140 63 
 160 161 77 
 42 7 15 
 8 162 9 
 158 163 164 
 105 165 28 
 143 166 144 
 145 147 167 
 168 169 155 
 170 171 44 
 99 44 171 
 36 125 68 
 172 173 148 
 24 148 173 
 174 175 109 
 108 174 109 
 176 177 93 
 178 179 180 
 67 104 66 
 110 40 141 
 7 116 15 
 110 75 70 
 21 23 181 
 182 183 139 
 8 139 183 
 32 71 75 
 150 151 184 
 21 85 92 
 70 72 40 
 185 29 31 
 186 187 188 
 189 108 91 
 190 122 129 
 191 113 104 
 132 47 133 
 140 192 63 
 189 174 108 
 61 84 162 
 193 194 195 
 9 162 84 
 81 196 62 
 124 60 92 
 189 91 10 
 197 49 51 
 46 198 47 
 74 167 147 
 199 144 166 
 155 169 200 
 201 23 76 
 22 76 23 
 35 77 161 
 202 203 101 
 64 101 203 
 65 37 204 
 205 194 193 
 55 206 119 
 138 53 207 
 208 207 53 
 202 160 187 
 209 210 211 
 190 211 210 
 126 212 127 
 81 62 82 
 59 212 76 
 175 134 133 
 5 213 25 
 214 215 90 
 107 90 215 
 216 51 207 
 117 151 118 
 131 211 31 
 190 31 211 
 188 187 217 
 172 218 219 
 220 219 218 
 172 219 173 
 208 173 219 
 221 76 212 
 158 222 223 
 158 223 3 
 154 57 56 
 158 164 222 
 142 144 50 
 146 48 147 
 172 164 163 
 199 224 144 
 54 144 224 
 136 223 222 
 189 3 223 
 177 167 93 
 178 180 166 
 107 109 225 
 159 63 62 
 64 203 65 
 156 16 226 
 227 103 63 
 138 207 51 
 172 148 164 
 61 82 62 
 74 93 167 
 199 166 180 
 105 206 228 
 229 228 206 
 230 231 232 
 230 232 233 
 74 147 18 
 19 18 147 
 157 16 156 
 19 149 134 
 87 234 44 
 88 90 235 
 154 56 155 
 168 155 56 
 236 237 238 
 117 119 239 
 240 239 119 
 168 38 169 
 158 4 163 
 201 193 2 
 241 2 193 
 98 65 242 
 41 111 73 
 124 73 111 
 36 204 37 
 208 53 173 
 24 173 53 
 159 62 196 
 243 238 213 
 208 219 244 
 168 245 38 
 246 187 160 
 126 152 247 
 20 17 13 
 209 248 249 
 59 127 212 
 54 250 144 
 19 147 149 
 29 26 30 
 170 251 171 
 136 252 223 
 8 183 162 
 189 223 174 
 199 180 253 
 153 109 133 
 78 245 79 
 120 122 237 
 168 56 79 
 170 44 254 
 107 225 90 
 55 80 79 
 255 247 152 
 256 238 237 
 97 257 93 
 179 258 180 
 97 180 258 
 176 93 257 
 36 38 125 
 201 2 23 
 1 23 2 
 49 142 50 
 146 46 48 
 259 112 111 
 66 65 204 
 67 260 104 
 136 261 17 
 11 17 261 
 11 261 148 
 164 148 261 
 219 262 244 
 11 13 17 
 168 79 245 
 130 94 58 
 126 128 152 
 39 73 192 
 220 262 219 
 255 152 95 
 107 215 139 
 182 139 215 
 256 6 25 
 190 263 122 
 135 210 226 
 202 187 264 
 229 249 248 
 216 207 265 
 266 88 235 
 87 267 234 
 67 127 260 
 97 94 180 
 74 58 93 
 240 100 171 
 99 171 100 
 102 101 113 
 64 113 101 
 214 268 215 
 182 215 268 
 202 269 203 
 108 139 91 
 227 192 73 
 209 226 210 
 78 95 152 
 8 91 139 
 209 249 156 
 154 156 249 
 191 104 260 
 135 116 210 
 131 165 228 
 240 119 270 
 54 53 250 
 131 228 248 
 61 162 82 
 138 250 53 
 251 239 171 
 255 95 271 
 38 245 125 
 229 57 249 
 272 95 80 
 154 249 57 
 69 152 128 
 21 181 10 
 175 252 134 
 136 134 252 
 220 195 194 
 189 10 273 
 272 123 118 
 22 92 60 
 115 210 116 
 135 226 16 
 272 271 95 
 229 206 57 
 55 119 123 
 259 260 127 
 55 57 206 
 39 141 40 
 39 192 140 
 274 244 262 
 208 265 207 
 144 250 50 
 147 48 149 
 170 254 265 
 216 265 254 
 115 263 210 
 190 210 263 
 28 165 30 
 131 30 165 
 52 12 224 
 170 265 275 
 170 275 251 
 32 276 114 
 119 206 270 
 209 211 248 
 236 120 237 
 243 236 238 
 59 112 127 
 259 127 112 
 259 277 260 
 44 234 254 
 90 225 235 
 259 278 277 
 202 161 160 
 110 276 75 
 157 155 200 
 153 225 109 
 209 156 226 
 240 171 239 
 175 174 252 
 223 252 174 
 106 82 162 
 157 14 16 
 122 263 279 
 274 151 251 
 117 251 151 
 202 264 269 
 115 279 263 
 186 269 264 
 172 163 218 
 27 43 45 
 98 242 269 
 106 162 183 
 35 161 101 
 117 239 251 
 208 244 265 
 202 101 161 
 274 251 275 
 59 60 112 
 246 217 187 
 106 280 83 
 241 218 163 
 105 270 206 
 121 185 129 
 179 233 258 
 231 176 257 
 78 125 245 
 185 31 129 
 54 224 12 
 150 184 194 
 220 194 184 
 190 129 31 
 1 181 23 
 124 137 73 
 227 73 137 
 102 71 34 
 201 281 193 
 205 193 281 
 32 75 276 
 143 178 166 
 177 145 167 
 52 224 282 
 102 283 71 
 96 71 283 
 221 284 281 
 205 281 284 
 175 133 109 
 32 34 71 
 285 188 217 
 131 248 211 
 198 266 286 
 267 197 287 
 186 264 187 
 65 203 242 
 255 271 288 
 241 163 4 
 132 149 48 
 138 50 250 
 227 63 192 
 255 288 284 
 150 271 118 
 272 118 271 
 182 280 183 
 20 13 86 
 52 86 13 
 266 235 286 
 153 286 235 
 267 287 234 
 216 234 287 
 201 76 281 
 221 281 76 
 106 183 280 
 85 103 137 
 189 273 3 
 1 3 273 
 41 278 111 
 259 111 278 
 213 238 25 
 256 25 238 
 231 257 232 
 233 232 258 
 130 282 253 
 241 195 218 
 220 218 195 
 269 242 203 
 122 279 237 
 191 260 277 
 220 184 262 
 105 100 270 
 240 270 100 
 182 268 280 
 241 4 2 
 96 277 278 
 191 283 113 
 256 237 279 
 227 137 103 
 199 282 224 
 274 184 151 
 135 15 116 
 197 51 287 
 198 286 47 
 130 253 94 
 241 193 195 
 105 228 165 
 55 123 80 
 130 86 282 
 52 282 86 
 102 113 283 
 10 181 273 
 216 254 234 
 153 235 225 
 229 248 228 
 274 262 184 
 136 222 261 
 164 261 222 
 41 72 278 
 96 278 72 
 153 47 286 
 216 287 51 
 97 232 257 
 97 258 232 
 272 80 123 
 85 84 103 
 221 212 247 
 36 68 204 
 66 204 68 
 256 279 6 
 126 247 212 
 115 6 279 
 150 194 288 
 205 288 194 
 150 288 271 
 199 253 282 
 265 244 275 
 191 277 283 
 1 273 181 
 274 275 244 
 96 283 277 
 205 284 288 
 61 103 84 
 221 247 284 
 246 289 217 
 285 217 289 
 180 94 253 
 255 284 247 
 285 289 290 
