TITLE      =  "2D FE Unstructured grid data" 
VARIABLES = "X", "Y", "U", "Dom" 
ZONE T="P1", F=FEPOINT, N= 150 E= 252  ET=TRIANGLE 
 3.061475 7.541786 10.603264 1
 3.036554 7.116055 10.152606 1
 3.548679 7.413867 10.962549 1
 3.526145 6.962081 10.488229 1
 2.688868 5.478332 8.167187 1
 3.014475 5.269521 8.283988 1
 3.178222 5.615045 8.793255 1
 3.217904 6.705928 9.923830 1
 2.861800 6.551113 9.412903 1
 3.078464 6.129756 9.208205 1
 3.541095 6.447021 9.988104 1
 2.748969 5.839282 8.588237 1
 3.610930 8.451221 12.062150 1
 3.286426 8.203651 11.490081 1
 3.835377 7.935706 11.771089 1
 3.429289 7.822212 11.251507 1
 0.000000 9.000000 9.000000 1
 0.000000 8.500000 8.500000 1
 0.400585 9.055422 9.456006 1
 0.944579 9.599416 10.543996 1
 1.500000 10.000000 11.500000 1
 1.000000 10.000000 11.000000 1
 2.250275 4.992496 7.242763 1
 1.959089 4.708433 6.667520 1
 2.519454 4.617539 7.136989 1
 2.000000 10.000000 12.000000 1
 1.809278 9.605790 11.415069 1
 2.345658 9.435477 11.781137 1
 0.000000 8.000000 8.000000 1
 0.548719 7.753302 8.302014 1
 0.441197 8.265736 8.706923 1
 2.500000 10.000000 12.500000 1
 0.000000 7.500000 7.500000 1
 0.533981 7.123613 7.657585 1
 1.710187 8.289813 9.999991 1
 1.900401 8.763212 10.663608 1
 1.476981 8.888110 10.365089 1
 0.524690 8.669641 9.194328 1
 1.383472 9.409592 10.793068 1
 2.595374 8.915371 11.510742 1
 2.206201 9.003235 11.209436 1
 2.312035 8.384999 10.697027 1
 0.746040 6.555224 7.301253 1
 0.607484 6.044858 6.652335 1
 1.087542 6.185545 7.273076 1
 1.229477 8.517486 9.746957 1
 0.958000 7.386718 8.344704 1
 2.136719 6.724856 8.861561 1
 1.994682 6.227536 8.222209 1
 2.455535 6.538917 8.994440 1
 1.109140 6.959435 8.068559 1
 2.791648 7.995997 10.787644 1
 0.000000 6.000000 6.000000 1
 0.436387 5.598951 6.035334 1
 3.510846 8.935240 12.446082 1
 3.060463 8.517699 11.578163 1
 0.971010 5.640933 6.611935 1
 0.648933 5.133022 5.781950 1
 0.799582 3.916036 4.715618 1
 1.064760 3.510846 4.575605 1
 1.315974 4.105296 5.421269 1
 4.112068 8.682659 12.794728 1
 0.000000 7.000000 7.000000 1
 4.850392 6.970865 11.821263 1
 4.544239 7.470311 12.014559 1
 4.311411 6.953655 11.265067 1
 4.039961 7.428069 11.468039 1
 1.428608 5.458821 6.887421 1
 1.496137 5.966736 7.462863 1
 1.744698 6.667954 8.412635 1
 3.970612 8.312254 12.282863 1
 1.817259 9.183880 11.001135 1
 0.868130 8.170958 9.039075 1
 4.587121 5.502742 10.089857 1
 4.267972 5.909310 10.177278 1
 4.182246 5.452900 9.635139 1
 2.537181 6.148106 8.685269 1
 1.075010 5.118639 6.193640 1
 2.680995 8.541888 11.222883 1
 2.025773 7.949537 9.975299 1
 2.452630 6.998343 9.450964 1
 1.564962 7.008573 8.573520 1
 1.262428 6.602551 7.864964 1
 1.128048 7.810184 8.938214 1
 1.625369 7.828491 9.453843 1
 2.037039 7.398280 9.435306 1
 3.024155 8.936788 11.960938 1
 0.979910 9.004504 9.984414 1
 0.584335 9.415665 10.000000 1
 1.523717 6.342100 7.865802 1
 0.000000 5.500000 5.500000 1
 0.500000 10.000000 10.500000 1
 0.000000 9.500000 9.500000 1
 3.911919 6.653083 10.564998 1
 0.000000 4.500000 4.500000 1
 0.411399 4.068558 4.479958 1
 0.519148 4.469748 4.988892 1
 1.120462 4.653204 5.773663 1
 1.480698 4.979750 6.460444 1
 0.685274 3.176999 3.862273 1
 0.465999 3.631433 4.097432 1
 3.176999 9.314727 12.491721 1
 3.631433 9.534001 13.165437 1
 2.401751 7.844774 10.246519 1
 2.844957 9.610103 12.455057 1
 3.948619 5.819788 9.768398 1
 0.000000 4.000000 4.000000 1
 0.000000 3.500000 3.500000 1
 4.000000 10.000000 14.000000 1
 3.500000 10.000000 13.500000 1
 2.638333 7.488691 10.127018 1
 0.286117 9.713883 9.999998 1
 1.523207 4.559756 6.082959 1
 1.474479 7.353233 8.827699 1
 1.923828 7.034168 8.957982 1
 3.706503 5.422816 9.129310 1
 3.573682 5.938948 9.512617 1
 0.337757 6.362359 6.700109 1
 4.324074 8.179432 12.503510 1
 4.588274 8.432290 13.020570 1
 2.646777 5.095945 7.742713 1
 3.056570 4.859698 7.916258 1
 2.284514 5.718431 8.002933 1
 4.330139 6.401568 10.731706 1
 1.930992 5.270320 7.201301 1
 2.797429 9.242493 12.039922 1
 1.784577 5.691288 7.475854 1
 4.622149 8.003650 12.625812 1
 1.323312 8.131766 9.455067 1
 0.883902 4.308674 5.192574 1
 0.000000 3.000000 3.000000 1
 0.000000 2.500000 2.500000 1
 0.389897 2.844957 3.234852 1
 3.000000 10.000000 13.000000 1
 0.373402 4.849321 5.222721 1
 0.870417 8.538280 9.408689 1
 4.594089 6.686401 11.280486 1
 4.259838 7.768824 12.028668 1
 3.908822 7.045800 10.954625 1
 0.294449 5.250000 5.544448 1
 0.335261 6.711713 7.046967 1
 3.938942 6.224551 10.163488 1
 3.350339 5.217937 8.568266 1
 0.770143 4.755435 5.525573 1
 0.000000 6.500000 6.500000 1
 0.000000 5.000000 5.000000 1
 2.360285 5.311105 7.671378 1
 0.000000 10.000000 10.000000 1
 0.300977 3.247592 3.548570 1
 3.247592 9.699023 12.946616 1
 1 2 3 
 3 2 4 
 5 6 7 
 8 9 10 
 11 8 10 
 12 5 7 
 13 14 15 
 16 15 14 
 17 18 19 
 20 21 22 
 23 24 25 
 26 27 28 
 29 30 31 
 32 26 28 
 29 33 30 
 33 34 30 
 35 36 37 
 19 18 38 
 39 21 20 
 40 41 42 
 43 44 45 
 35 37 46 
 47 30 34 
 42 41 36 
 48 49 50 
 47 34 51 
 52 1 16 
 53 54 44 
 13 55 56 
 57 54 58 
 59 60 61 
 13 62 55 
 33 63 34 
 52 16 14 
 64 65 66 
 67 66 65 
 57 68 69 
 57 69 45 
 48 70 49 
 7 10 12 
 13 15 71 
 72 28 27 
 73 31 30 
 74 75 76 
 77 50 49 
 57 58 78 
 40 42 79 
 35 80 42 
 2 81 9 
 82 83 70 
 43 45 83 
 43 51 34 
 73 30 84 
 47 84 30 
 35 85 80 
 86 80 85 
 56 55 87 
 88 89 19 
 88 20 89 
 57 45 44 
 90 70 83 
 53 91 54 
 92 89 20 
 93 19 89 
 11 94 4 
 9 81 50 
 95 96 97 
 98 99 78 
 35 42 36 
 100 60 101 
 59 101 60 
 102 55 103 
 88 19 38 
 88 39 20 
 90 49 70 
 52 79 42 
 52 42 104 
 32 28 105 
 57 44 54 
 106 76 75 
 77 10 9 
 107 108 101 
 109 110 103 
 86 111 104 
 92 112 89 
 93 89 112 
 72 39 37 
 88 37 39 
 98 113 99 
 86 85 114 
 86 114 115 
 86 104 80 
 16 3 15 
 67 15 3 
 86 81 111 
 7 116 117 
 106 117 116 
 43 118 44 
 119 120 62 
 23 25 121 
 122 121 25 
 82 51 83 
 95 107 96 
 22 92 20 
 93 17 19 
 52 56 79 
 7 117 10 
 11 10 117 
 52 111 1 
 107 101 96 
 53 44 118 
 77 49 123 
 52 14 56 
 124 66 94 
 11 4 8 
 2 8 4 
 99 125 68 
 98 61 113 
 82 115 114 
 40 126 28 
 127 68 125 
 47 114 84 
 85 84 114 
 72 41 28 
 40 28 41 
 119 128 120 
 35 129 85 
 2 1 111 
 98 130 61 
 86 115 81 
 131 132 133 
 134 32 105 
 95 97 135 
 72 37 36 
 21 39 27 
 18 31 38 
 72 27 39 
 77 123 12 
 59 130 96 
 97 96 130 
 127 123 49 
 13 56 14 
 38 31 136 
 73 136 31 
 64 66 137 
 2 111 81 
 73 129 46 
 67 65 138 
 42 80 104 
 88 38 136 
 67 139 66 
 124 137 66 
 58 54 140 
 127 49 69 
 90 69 49 
 88 46 37 
 5 12 123 
 77 12 10 
 63 141 34 
 59 61 130 
 13 71 62 
 119 62 71 
 11 142 94 
 52 104 111 
 127 125 123 
 43 34 141 
 122 143 6 
 98 78 144 
 47 51 114 
 82 114 51 
 73 84 129 
 88 136 46 
 23 125 24 
 99 24 125 
 40 79 87 
 56 87 79 
 58 144 78 
 48 81 115 
 16 1 3 
 2 9 8 
 26 21 27 
 18 29 31 
 11 117 142 
 99 68 78 
 102 87 55 
 43 141 118 
 63 145 141 
 4 94 139 
 145 53 118 
 90 83 45 
 73 46 136 
 35 46 129 
 127 69 68 
 90 45 69 
 4 139 3 
 67 3 139 
 28 126 105 
 48 50 81 
 146 95 135 
 123 125 147 
 77 9 50 
 124 94 142 
 148 112 92 
 148 93 112 
 59 96 101 
 119 15 138 
 106 142 117 
 100 149 133 
 131 133 149 
 134 105 150 
 102 150 105 
 72 36 41 
 57 78 68 
 122 6 121 
 5 121 6 
 85 129 84 
 99 113 24 
 108 131 149 
 110 134 150 
 91 146 140 
 67 138 15 
 106 116 76 
 91 140 54 
 119 71 15 
 66 139 94 
 102 105 126 
 98 144 130 
 97 130 144 
 58 140 135 
 146 135 140 
 5 123 147 
 108 149 101 
 110 150 103 
 100 101 149 
 102 103 150 
 119 138 128 
 43 83 51 
 7 143 116 
 97 144 135 
 58 135 144 
 23 121 147 
 5 147 121 
 102 126 87 
 106 75 142 
 23 147 125 
 145 118 141 
 65 128 138 
 7 6 143 
 124 142 75 
 40 87 126 
 82 70 115 
 48 115 70 
