TITLE      =  "2D FE Unstructured grid data" 
VARIABLES = "X", "Y", "U", "Dom" 
ZONE T="P1", F=FEPOINT, N= 152 E= 262  ET=TRIANGLE 
 5.285016 1.963994 7.249019 0
 5.702989 2.281684 7.984674 0
 5.307171 2.573110 7.880283 0
 5.002438 2.242399 7.244845 0
 2.519454 4.617539 7.136989 0
 1.959089 4.708433 6.667520 0
 2.233042 4.218292 6.451332 0
 3.600780 1.533440 5.134225 0
 4.152994 1.446964 5.599965 0
 3.806587 1.965887 5.772483 0
 4.319713 1.900161 6.219882 0
 5.023425 3.046528 8.069954 0
 5.497469 3.121233 8.618702 0
 5.213371 3.591947 8.805312 0
 0.400585 0.944579 1.345163 0
 0.000000 1.500000 1.500000 0
 0.000000 1.000000 1.000000 0
 1.000000 0.000000 1.000000 0
 1.500000 0.000000 1.500000 0
 0.944579 0.400585 1.345164 0
 2.577009 2.058942 4.635952 0
 2.679085 1.646270 4.325354 0
 3.169600 2.000022 5.169627 0
 2.000000 0.000000 2.000000 0
 2.325706 0.580034 2.905740 0
 1.743670 0.444925 2.188594 0
 0.000000 2.000000 2.000000 0
 0.394210 1.809278 2.203487 0
 0.564522 2.345658 2.910177 0
 2.500000 0.000000 2.500000 0
 0.000000 2.500000 2.500000 0
 1.710187 1.710187 3.420370 0
 1.234540 1.895878 3.130412 0
 1.103808 1.468828 2.572630 0
 0.590408 1.383472 1.973876 0
 1.330359 0.524690 1.855049 0
 3.046253 1.465412 4.511667 0
 1.159852 2.631092 3.790940 0
 0.989061 2.208623 3.197680 0
 1.603763 2.289422 3.893182 0
 1.482515 1.229477 2.711988 0
 4.664124 3.402024 8.066146 0
 3.478270 1.033532 4.511805 0
 4.587121 5.502742 10.089857 0
 4.182246 5.452900 9.635139 0
 4.531970 4.902879 9.434838 0
 2.191923 2.878633 5.070558 0
 2.397825 3.322394 5.720223 0
 1.935903 3.296824 5.232728 0
 1.540147 3.603075 5.143223 0
 1.064760 3.510846 4.575605 0
 1.437078 3.077250 4.514326 0
 5.640933 0.971010 6.611951 0
 5.133022 0.648933 5.781963 0
 5.599133 0.436245 6.035384 0
 2.593414 3.029429 5.622848 0
 1.315974 4.105296 5.421269 0
 4.745620 3.957538 8.703149 0
 4.342788 4.086781 8.429560 0
 4.315207 3.668766 7.983971 0
 2.955192 2.873441 5.828640 0
 2.878970 3.476958 6.355928 0
 5.688540 3.545236 9.233772 0
 4.068738 5.022459 9.091187 0
 5.960241 1.496555 7.456797 0
 5.460020 1.468531 6.928559 0
 3.652464 2.431619 6.084088 0
 1.829043 0.868130 2.697171 0
 0.816120 1.817259 2.633375 0
 4.262637 4.523345 8.785973 0
 2.654246 4.029329 6.683572 0
 3.220460 4.037631 7.258087 0
 3.898349 4.636443 8.534784 0
 5.150860 1.112071 6.262938 0
 1.742676 2.767682 4.510357 0
 1.808434 4.301433 6.109867 0
 2.056031 2.018568 4.074596 0
 3.023369 1.029815 4.053185 0
 3.448023 3.482776 6.930797 0
 2.612799 1.175108 3.787906 0
 2.160445 1.117667 3.278110 0
 2.235293 1.590055 3.825344 0
 1.027115 3.039136 4.066248 0
 0.995496 0.979910 1.975402 0
 0.584335 0.584335 1.168669 0
 3.200562 2.519108 5.719674 0
 0.500000 0.000000 0.500000 0
 0.000000 0.500000 0.500000 0
 2.955753 4.412769 7.368516 0
 3.598432 4.330139 7.928560 0
 3.299314 4.571969 7.871274 0
 4.500000 0.000000 4.500000 0
 4.451180 0.577381 5.028565 0
 4.086689 0.387710 4.474402 0
 4.655449 1.180623 5.836080 0
 4.994725 1.504087 6.498819 0
 4.842675 2.610447 7.453128 0
 3.177495 0.685654 3.863150 0
 3.630151 0.459878 4.090033 0
 3.939141 0.787585 4.726733 0
 4.023013 2.755121 6.778140 0
 3.481710 2.943160 6.424873 0
 5.742897 2.808823 8.551717 0
 6.039965 2.571611 8.611572 0
 2.851552 2.369980 5.221536 0
 1.980207 3.831486 5.811693 0
 2.842137 0.392672 3.234807 0
 0.389897 2.844957 3.234852 0
 4.583381 1.582855 6.166244 0
 2.346699 3.695880 6.042576 0
 3.500000 0.000000 3.500000 0
 4.000000 0.000000 4.000000 0
 2.543161 2.595718 5.138883 0
 2.127540 2.432868 4.560408 0
 0.323699 0.323699 0.647399 0
 4.437271 2.578544 7.015821 0
 4.583924 2.996839 7.580766 0
 4.185420 3.188737 7.374160 0
 3.706503 5.422816 9.129310 0
 3.571464 4.882519 8.453972 0
 5.997490 3.136412 9.133899 0
 3.684399 3.909931 7.594325 0
 3.056570 4.859698 7.916258 0
 3.350339 5.217937 8.568266 0
 3.809786 3.177785 6.987573 0
 6.124018 1.994288 8.118303 0
 5.712749 1.804119 7.516872 0
 2.796301 0.772657 3.568956 0
 0.765332 2.807569 3.572899 0
 1.860481 1.333536 3.194013 0
 4.300417 0.987906 5.288332 0
 3.000000 0.000000 3.000000 0
 4.846227 0.383108 5.229338 0
 3.190802 3.202551 6.393355 0
 1.461720 0.870417 2.332134 0
 1.523207 4.559756 6.082959 0
 4.042525 3.858386 7.900905 0
 3.860583 1.157002 5.017591 0
 5.250000 0.294449 5.544454 0
 4.801506 1.894362 6.695875 0
 1.665563 3.961681 5.627242 0
 4.586895 4.383030 8.969917 0
 3.910763 3.519130 7.429893 0
 4.747908 0.791411 5.539328 0
 4.591333 2.221468 6.812809 0
 0.685274 3.176999 3.862273 0
 4.138186 2.303581 6.441775 0
 5.000000 0.000000 5.000000 0
 0.000000 0.000000 0.000000 0
 3.247592 0.300977 3.548570 0
 5.500000 0.000000 5.500000 0
 3.978420 4.227369 8.205782 0
 1 2 3 
 4 1 3 
 5 6 7 
 8 9 10 
 11 10 9 
 12 13 14 
 15 16 17 
 18 19 20 
 21 22 23 
 24 25 26 
 27 28 29 
 24 30 25 
 31 27 29 
 32 33 34 
 35 16 15 
 20 19 36 
 8 23 37 
 38 39 40 
 23 22 37 
 32 34 41 
 40 39 33 
 12 14 42 
 8 37 43 
 44 45 46 
 47 48 49 
 50 51 52 
 53 54 55 
 47 56 48 
 50 57 51 
 58 59 60 
 61 62 56 
 58 60 42 
 63 14 13 
 64 46 45 
 48 56 62 
 53 65 66 
 8 10 23 
 67 23 10 
 68 26 25 
 69 29 28 
 64 70 46 
 71 62 72 
 64 73 70 
 53 74 54 
 75 47 49 
 52 75 49 
 76 7 6 
 32 77 40 
 37 78 43 
 79 72 62 
 80 81 25 
 68 25 81 
 21 77 82 
 32 82 77 
 52 51 83 
 84 85 20 
 84 15 85 
 67 86 23 
 12 3 13 
 87 20 85 
 88 85 15 
 71 89 5 
 90 91 72 
 71 72 89 
 92 93 94 
 95 74 96 
 4 3 97 
 12 97 3 
 32 40 33 
 98 99 43 
 100 43 99 
 84 20 36 
 84 35 15 
 67 101 102 
 38 40 75 
 3 2 103 
 103 2 104 
 21 23 105 
 50 49 106 
 58 42 14 
 30 107 25 
 31 29 108 
 95 96 109 
 72 91 89 
 67 102 86 
 61 86 102 
 106 49 110 
 111 112 99 
 21 113 114 
 87 85 115 
 88 115 85 
 84 34 35 
 69 35 34 
 116 117 101 
 118 101 117 
 21 114 77 
 64 119 120 
 80 22 82 
 50 52 49 
 80 37 22 
 48 110 49 
 112 92 94 
 87 18 20 
 17 88 15 
 61 113 105 
 38 75 52 
 71 110 62 
 112 94 99 
 63 13 121 
 79 122 72 
 90 72 122 
 47 113 56 
 40 114 75 
 48 62 110 
 96 66 1 
 11 9 109 
 95 109 9 
 123 120 124 
 80 82 81 
 79 102 125 
 104 2 126 
 127 65 126 
 80 25 128 
 38 129 29 
 127 1 66 
 64 120 73 
 61 105 86 
 69 39 29 
 38 29 39 
 32 130 82 
 127 126 2 
 123 5 89 
 100 93 131 
 21 82 22 
 30 132 107 
 92 133 93 
 69 34 33 
 100 94 93 
 19 26 36 
 69 28 35 
 16 35 28 
 118 117 42 
 12 42 117 
 80 78 37 
 61 134 62 
 38 52 83 
 36 26 135 
 68 135 26 
 71 5 7 
 90 73 120 
 47 75 114 
 102 101 125 
 68 130 41 
 76 136 57 
 40 77 114 
 90 120 91 
 123 91 120 
 137 60 59 
 84 36 135 
 8 138 9 
 95 9 131 
 104 121 103 
 61 102 134 
 79 134 102 
 54 139 55 
 84 41 34 
 118 42 60 
 110 71 7 
 106 110 7 
 76 106 7 
 11 109 140 
 50 141 57 
 76 57 141 
 70 142 46 
 47 114 113 
 21 105 113 
 79 125 143 
 79 62 134 
 61 56 113 
 50 106 141 
 76 141 106 
 95 144 74 
 11 140 145 
 68 81 130 
 84 135 41 
 23 86 105 
 54 74 144 
 116 145 97 
 4 97 145 
 127 2 1 
 19 24 26 
 27 16 28 
 96 74 66 
 146 83 51 
 98 43 78 
 120 119 124 
 68 41 135 
 32 41 130 
 127 66 65 
 3 103 13 
 25 107 128 
 93 144 131 
 67 10 147 
 11 147 10 
 29 129 108 
 11 145 147 
 116 147 145 
 116 97 117 
 12 117 97 
 92 148 133 
 149 115 88 
 149 87 115 
 95 131 144 
 100 99 94 
 132 150 107 
 98 107 150 
 69 33 39 
 8 43 138 
 67 147 101 
 116 101 147 
 53 66 74 
 79 143 122 
 137 122 143 
 82 130 81 
 132 111 150 
 148 151 139 
 64 45 119 
 151 55 139 
 121 13 103 
 90 122 152 
 137 152 122 
 146 108 129 
 54 133 139 
 148 139 133 
 98 128 107 
 118 125 101 
 100 138 43 
 111 99 150 
 98 150 99 
 123 89 91 
 4 140 1 
 96 1 140 
 96 140 109 
 90 152 73 
 70 73 152 
 118 60 143 
 137 143 60 
 100 131 138 
 9 138 131 
 76 6 136 
 93 133 144 
 54 144 133 
 137 59 152 
 70 152 59 
 146 129 83 
 98 78 128 
 4 145 140 
 118 143 125 
 80 128 78 
 38 83 129 
 58 142 59 
 70 59 142 
