TITLE      =  "2D FE Unstructured grid data" 
VARIABLES = "X", "Y", "U", "Dom" 
ZONE T="P1", F=FEPOINT, N= 153 E= 262  ET=TRIANGLE 
 7.726332 5.787604 13.513941 3
 7.421057 5.301277 12.722341 3
 8.036289 5.296001 13.332293 3
 6.746138 6.744982 13.491117 3
 6.551113 7.138200 13.689312 3
 6.149960 6.929224 13.079187 3
 5.479589 7.312550 12.792149 3
 5.261666 7.001314 12.262986 3
 5.622592 6.830288 12.452884 3
 5.000000 7.803136 12.803148 3
 5.030350 8.403957 13.434316 3
 4.622149 8.003650 12.625812 3
 6.365398 6.515240 12.880636 3
 4.588274 8.432290 13.020570 3
 5.842260 7.252849 13.095110 3
 9.599416 9.055422 18.654846 3
 10.000000 8.500000 18.500000 3
 10.000000 9.000000 19.000000 3
 9.000000 10.000000 19.000000 3
 8.500000 10.000000 18.500000 3
 9.055422 9.599416 18.654840 3
 8.000000 10.000000 18.000000 3
 7.702782 9.447422 17.150206 3
 8.200390 9.608269 17.808662 3
 10.000000 8.000000 18.000000 3
 9.611600 8.205017 17.816624 3
 9.435477 7.654342 17.089827 3
 7.500000 10.000000 17.500000 3
 10.000000 7.500000 17.500000 3
 7.117104 9.446967 16.564070 3
 9.462698 7.117492 16.580185 3
 9.451273 8.658932 18.110210 3
 8.616426 9.410041 18.026466 3
 8.895225 7.368824 16.264051 3
 9.003053 7.792595 16.795652 3
 8.410030 7.721632 16.131666 3
 6.555224 9.253960 15.809182 3
 6.044858 9.392516 15.437372 3
 6.185545 8.912457 15.098001 3
 9.267032 6.577304 15.844329 3
 8.906540 6.217374 15.123902 3
 9.394695 6.048537 15.443226 3
 8.309869 8.319978 16.629852 3
 8.770523 8.517486 17.288013 3
 8.515188 8.877708 17.392899 3
 8.741248 8.110316 16.851570 3
 8.107367 8.734884 16.842253 3
 7.391668 8.912497 16.304159 3
 6.724856 7.863281 14.588138 3
 6.227536 8.005319 14.232853 3
 6.537257 7.545734 14.082990 3
 6.959368 8.884415 15.843780 3
 7.808723 7.119680 14.928399 3
 7.656044 6.786410 14.442448 3
 8.092717 6.725279 14.817993 3
 7.445796 7.019952 14.465744 3
 7.401499 6.027836 13.429334 3
 7.642769 6.337866 13.980630 3
 7.110404 6.343143 13.453548 3
 6.000000 10.000000 16.000000 3
 5.598951 9.563613 15.162566 3
 10.000000 6.000000 16.000000 3
 9.563872 5.599389 15.163259 3
 5.640933 9.028990 14.669924 3
 5.133022 9.351067 14.484090 3
 7.271882 6.724666 13.996548 3
 3.916036 9.200418 13.116457 3
 3.510846 8.935240 12.446082 3
 4.112068 8.682659 12.794728 3
 7.000000 10.000000 17.000000 3
 10.000000 7.000000 17.000000 3
 6.887373 5.934816 12.822189 3
 5.464315 8.557137 14.021459 3
 5.966974 8.503244 14.470219 3
 9.028990 5.640933 14.669920 3
 8.539618 5.928905 14.468519 3
 8.531447 5.459974 13.991421 3
 6.667953 8.255211 14.923164 3
 8.182741 9.183880 17.366629 3
 9.171249 8.211814 17.383070 3
 6.148106 7.462820 13.610927 3
 5.051620 5.901019 10.952635 3
 4.620763 6.054313 10.675072 3
 4.587121 5.502742 10.089857 3
 8.460285 6.404686 14.864964 3
 8.114693 6.137986 14.252678 3
 5.114183 8.920589 14.034776 3
 8.561490 6.939033 15.500515 3
 8.314845 7.274383 15.589227 3
 4.267972 5.909310 10.177278 3
 8.839903 6.627205 15.467101 3
 7.938666 8.000078 15.938748 3
 7.071429 7.071429 14.142857 3
 6.966450 7.571752 14.538202 3
 7.008573 8.435038 15.443609 3
 6.602542 8.736805 15.339338 3
 7.398280 7.962961 15.361245 3
 7.729050 8.440055 16.169100 3
 9.019232 9.008276 18.027519 3
 9.415665 9.415665 18.831333 3
 6.342100 8.476283 14.818384 3
 6.451190 5.669247 12.120440 3
 6.014967 5.626393 11.641356 3
 6.403636 5.206127 11.609764 3
 5.500000 10.000000 15.500000 3
 9.500000 10.000000 19.500000 3
 10.000000 9.500000 19.500000 3
 5.443104 6.279031 11.722136 3
 4.884411 6.419515 11.303930 3
 4.500000 10.000000 14.500000 3
 4.068558 9.588601 13.657158 3
 4.469748 9.480852 13.950599 3
 4.653204 8.879538 13.532743 3
 9.005270 6.925972 15.931240 3
 3.631433 9.534001 13.165437 3
 5.327877 8.073841 13.401730 3
 6.321088 6.088987 12.410072 3
 5.978675 6.480018 12.458698 3
 5.856858 6.065458 11.922314 3
 6.864631 5.478378 12.343014 3
 7.811688 8.976355 16.788038 3
 4.330139 6.401568 10.731706 3
 7.438109 7.379153 14.817258 3
 7.869543 7.569240 15.438778 3
 9.676301 9.676301 19.352610 3
 7.338500 8.515754 15.854254 3
 7.023685 8.090052 15.113735 3
 6.362173 9.661698 16.023869 3
 9.665423 6.363516 16.028933 3
 4.544239 7.470311 12.014559 3
 5.083638 7.365228 12.448879 3
 4.850392 6.970865 11.821263 3
 4.000000 10.000000 14.000000 3
 5.718610 7.715688 13.434304 3
 6.686080 6.325434 13.011514 3
 5.219220 6.652543 11.871767 3
 8.195748 5.712474 13.908222 3
 5.691288 8.215423 13.906718 3
 7.260178 5.705982 12.966164 3
 9.103103 8.614861 17.717972 3
 4.303929 9.098208 13.402136 3
 4.849321 9.626597 14.475919 3
 4.594089 6.686401 11.280486 3
 5.250000 9.705551 14.955553 3
 6.710783 9.662018 16.372795 3
 9.677791 6.709851 16.387642 3
 5.510819 5.802945 11.313762 3
 4.753901 9.226142 13.980045 3
 6.500000 10.000000 16.500000 3
 10.000000 6.500000 16.500000 3
 5.000000 10.000000 15.000000 3
 5.321943 7.654088 12.976045 3
 10.000000 10.000000 20.000000 3
 1 2 3 
 4 5 6 
 7 8 9 
 10 11 12 
 13 4 6 
 11 14 12 
 15 7 9 
 16 17 18 
 19 20 21 
 22 23 24 
 25 26 27 
 22 28 23 
 29 25 27 
 28 30 23 
 29 27 31 
 32 17 16 
 21 20 33 
 34 35 36 
 37 38 39 
 40 41 42 
 43 44 45 
 36 35 46 
 43 45 47 
 34 31 27 
 48 23 30 
 49 50 51 
 48 30 52 
 53 54 55 
 53 56 54 
 57 58 59 
 60 61 38 
 62 42 63 
 64 61 65 
 59 58 66 
 67 68 69 
 28 70 30 
 71 29 31 
 57 59 72 
 64 73 74 
 75 76 77 
 64 74 39 
 75 41 76 
 49 78 50 
 9 6 15 
 79 24 23 
 80 27 26 
 81 51 50 
 82 83 84 
 85 55 86 
 64 65 87 
 88 89 55 
 89 53 55 
 84 83 90 
 40 91 41 
 43 92 36 
 93 94 5 
 95 96 78 
 37 39 96 
 54 66 58 
 37 52 30 
 97 92 98 
 43 98 92 
 99 100 21 
 99 16 100 
 86 55 58 
 64 39 38 
 75 42 41 
 101 78 96 
 102 103 104 
 60 105 61 
 106 21 100 
 107 100 16 
 86 58 1 
 5 94 51 
 82 108 109 
 58 57 1 
 110 111 112 
 43 36 46 
 113 11 87 
 34 114 31 
 67 115 68 
 99 21 33 
 99 32 16 
 101 50 78 
 10 116 11 
 34 36 89 
 102 72 117 
 9 108 118 
 119 118 108 
 102 104 120 
 113 69 14 
 48 98 121 
 64 38 61 
 75 63 42 
 122 83 109 
 82 109 83 
 81 6 5 
 97 123 124 
 106 100 125 
 107 125 100 
 79 45 33 
 99 33 45 
 113 14 11 
 97 98 126 
 97 126 127 
 97 124 92 
 97 94 123 
 37 128 38 
 40 42 129 
 85 88 55 
 10 130 131 
 132 131 130 
 95 52 96 
 110 133 111 
 106 19 21 
 18 107 16 
 34 89 88 
 133 115 111 
 60 38 128 
 62 129 42 
 81 50 134 
 54 58 55 
 43 47 98 
 72 135 117 
 53 123 56 
 36 124 89 
 48 126 98 
 11 116 73 
 132 109 136 
 95 127 126 
 137 76 86 
 85 86 76 
 137 3 77 
 138 73 116 
 48 121 23 
 79 23 121 
 43 46 44 
 57 139 1 
 80 35 27 
 34 27 35 
 2 1 139 
 34 88 114 
 98 47 121 
 137 86 1 
 99 140 32 
 109 108 136 
 85 41 91 
 80 44 46 
 113 141 69 
 97 127 94 
 110 112 142 
 102 120 72 
 80 26 32 
 17 32 26 
 20 24 33 
 79 33 24 
 81 134 15 
 112 111 141 
 67 141 111 
 85 91 88 
 138 134 50 
 53 89 124 
 93 123 94 
 10 12 130 
 36 92 124 
 132 143 109 
 122 109 143 
 80 32 140 
 2 139 120 
 9 118 6 
 13 6 118 
 65 61 144 
 138 50 74 
 101 74 50 
 99 45 44 
 40 31 114 
 57 72 139 
 7 15 134 
 81 15 6 
 70 145 30 
 71 31 146 
 59 135 72 
 67 69 141 
 53 124 123 
 138 116 134 
 37 30 145 
 40 146 31 
 132 136 8 
 93 56 123 
 119 147 103 
 113 87 148 
 48 52 126 
 95 126 52 
 80 140 44 
 79 47 45 
 65 148 87 
 49 94 127 
 137 1 3 
 93 5 4 
 119 117 118 
 13 118 117 
 20 22 24 
 25 17 26 
 11 73 87 
 37 145 128 
 40 129 146 
 70 149 145 
 150 71 146 
 62 150 129 
 149 60 128 
 101 96 39 
 99 44 140 
 138 74 73 
 137 77 76 
 101 39 74 
 85 76 41 
 119 103 117 
 102 117 103 
 49 51 94 
 151 110 142 
 134 116 152 
 81 5 51 
 119 108 147 
 93 4 66 
 153 125 107 
 153 106 125 
 67 111 115 
 13 135 4 
 59 4 135 
 80 46 35 
 64 87 73 
 59 66 4 
 7 131 8 
 132 8 131 
 88 91 114 
 105 151 144 
 79 121 47 
 72 120 139 
 105 144 61 
 82 147 108 
 9 136 108 
 122 90 83 
 112 141 148 
 113 148 141 
 151 142 144 
 65 144 142 
 7 134 152 
 37 96 52 
 13 117 135 
 40 114 91 
 112 148 142 
 65 142 148 
 10 131 152 
 7 152 131 
 10 152 116 
 149 128 145 
 150 146 129 
 9 8 136 
 95 78 127 
 49 127 78 
 93 66 56 
 54 56 66 
