TITLE      =  "2D FE Unstructured grid data" 
VARIABLES = "X", "Y", "U", "Dom" 
ZONE T="P1", F=FEPOINT, N= 152 E= 258  ET=TRIANGLE 
 7.421057 5.301277 12.722341 2
 7.757559 5.000937 12.758503 2
 8.036289 5.296001 13.332293 2
 8.466560 3.600780 12.067344 2
 8.553036 4.152994 12.706036 2
 8.034113 3.806587 11.840708 2
 8.099839 4.319713 12.419560 2
 9.055422 0.400585 9.456008 2
 8.500000 0.000000 8.500000 2
 9.000000 0.000000 9.000000 2
 10.000000 1.000000 11.000000 2
 10.000000 1.500000 11.500000 2
 9.599416 0.944579 10.543997 2
 7.941058 2.577009 10.518063 2
 8.356617 2.680021 11.036637 2
 7.999978 3.169600 11.169582 2
 10.000000 2.000000 12.000000 2
 9.435477 2.345658 11.781131 2
 9.605880 1.809298 11.415178 2
 8.000000 0.000000 8.000000 2
 8.205017 0.388400 8.593412 2
 7.654342 0.564522 8.218857 2
 5.000000 5.000000 9.999991 2
 5.203485 5.435993 10.639475 2
 4.587121 5.502742 10.089857 2
 6.093332 4.768786 10.862116 2
 5.810459 4.394621 10.205074 2
 6.318933 4.330133 10.649066 2
 10.000000 2.500000 12.500000 2
 7.500000 0.000000 7.500000 2
 7.111571 0.548053 7.659622 2
 8.658932 0.548727 9.207655 2
 9.410041 1.383574 10.793617 2
 4.531970 4.902879 9.434838 2
 7.366182 1.111200 8.477370 2
 7.789040 0.985449 8.774487 2
 7.721440 1.590438 9.311863 2
 8.535398 3.046531 11.581928 2
 5.051620 5.901019 10.952635 2
 6.564394 0.738843 7.303238 2
 6.202824 1.091035 7.293861 2
 6.046386 0.606284 6.652673 2
 8.319978 1.690132 10.010104 2
 8.517486 1.229477 9.746964 2
 8.877745 1.484661 10.362406 2
 8.110278 1.258845 9.369115 2
 8.735188 1.891365 10.626554 2
 5.213371 3.591947 8.805312 2
 5.667889 3.959843 9.627725 2
 5.149551 4.053057 9.202600 2
 6.920655 5.029402 11.950062 2
 6.403636 5.206127 11.609764 2
 6.600986 4.668982 11.269973 2
 5.688540 3.545236 9.233772 2
 6.119803 4.049432 10.169231 2
 6.864631 5.478378 12.343014 2
 8.966551 3.478299 12.444851 2
 6.000000 0.000000 6.000000 2
 5.599133 0.436245 6.035384 2
 7.121367 2.191923 9.313280 2
 6.677606 2.397825 9.075421 2
 6.694536 1.932409 8.626938 2
 9.028990 5.640933 14.669920 2
 9.351067 5.133022 14.484080 2
 9.563872 5.599389 15.163259 2
 6.971801 2.590915 9.562712 2
 7.000000 0.000000 7.000000 2
 7.126559 2.955192 10.081754 2
 6.529193 2.866476 9.395667 2
 5.640933 0.971010 6.611951 2
 5.960241 1.496555 7.456797 2
 7.568381 3.652464 11.220854 2
 9.183880 1.817259 11.001140 2
 8.211814 0.828751 9.040564 2
 6.039965 2.571611 8.611572 2
 5.997490 3.136412 9.133899 2
 6.396925 1.540147 7.937069 2
 6.124018 1.994288 8.118303 2
 5.568357 4.970441 10.538789 2
 5.310039 4.641696 9.951723 2
 8.887929 5.150860 14.038786 2
 7.254286 1.703365 8.957643 2
 6.914734 1.427768 8.342492 2
 7.996828 2.051613 10.048435 2
 6.908709 1.001740 7.910446 2
 8.974099 3.024712 11.998812 2
 6.517223 3.448023 9.965247 2
 6.014967 5.626393 11.641356 2
 5.939258 5.181006 11.120257 2
 8.445899 2.246587 10.692485 2
 9.008276 0.980768 9.989041 2
 9.415665 0.584335 10.000002 2
 6.590618 1.174481 7.765098 2
 7.480892 3.200562 10.681459 2
 5.500000 0.000000 5.500000 2
 10.000000 5.500000 15.500000 2
 10.000000 6.000000 16.000000 2
 10.000000 0.500000 10.500000 2
 9.500000 0.000000 9.500000 2
 6.317542 2.333390 8.650926 2
 10.000000 4.500000 14.500000 2
 9.422619 4.451180 13.873798 2
 9.612291 4.086689 13.698980 2
 8.819378 4.655449 13.474828 2
 8.495914 4.994725 13.490636 2
 9.314345 3.177495 12.491838 2
 9.540133 3.630155 13.170292 2
 9.212415 3.939141 13.151561 2
 7.244879 4.023013 11.267902 2
 7.056840 3.481710 10.538556 2
 7.388955 4.823813 12.212777 2
 7.630020 2.851552 10.481571 2
 8.843570 2.619207 11.462778 2
 9.010321 2.199805 11.210124 2
 9.609913 2.845462 12.455373 2
 8.417145 4.583381 13.000524 2
 5.430021 4.281511 9.711524 2
 10.000000 3.500000 13.500000 2
 10.000000 4.000000 14.000000 2
 7.404282 2.543161 9.947439 2
 7.574806 2.114884 9.689679 2
 4.962249 4.489476 9.451715 2
 9.676301 0.323699 10.000004 2
 7.421456 4.437271 11.858736 2
 7.003161 4.583924 11.587091 2
 6.811263 4.185420 10.996692 2
 6.364417 0.336274 6.700693 2
 5.627848 5.408683 11.036524 2
 6.094593 3.677833 9.772427 2
 4.586895 4.383030 8.969917 2
 8.531447 5.459974 13.991421 2
 6.821593 3.810345 10.631943 2
 9.235481 2.802507 12.037982 2
 8.614861 0.896897 9.511760 2
 9.012094 4.300417 13.312510 2
 10.000000 3.000000 13.000000 2
 9.616893 4.846227 14.463120 2
 6.798548 3.188571 9.987123 2
 8.842998 3.860583 12.703588 2
 9.705551 5.250000 14.955547 2
 6.711302 0.336243 7.047545 2
 8.097537 4.797393 12.894933 2
 6.477758 3.913559 10.391316 2
 9.208590 4.747908 13.956497 2
 7.778477 4.589602 12.368087 2
 6.500000 0.000000 6.500000 2
 4.745620 3.957538 8.703149 2
 5.510819 5.802945 11.313762 2
 7.696418 4.138186 11.834616 2
 10.000000 5.000000 15.000000 2
 10.000000 0.000000 10.000000 2
 9.699023 3.247592 12.946609 2
 1 2 3 
 4 5 6 
 7 6 5 
 8 9 10 
 11 12 13 
 14 15 16 
 17 18 19 
 20 21 22 
 23 24 25 
 26 27 28 
 17 29 18 
 30 20 22 
 30 22 31 
 32 9 8 
 13 12 33 
 23 25 34 
 35 36 37 
 4 16 38 
 39 25 24 
 16 15 38 
 40 41 42 
 43 44 45 
 37 36 46 
 43 45 47 
 48 49 50 
 35 31 22 
 51 52 53 
 54 49 48 
 55 28 27 
 51 56 52 
 4 38 57 
 58 42 59 
 60 61 62 
 63 64 65 
 60 66 61 
 67 30 31 
 68 69 66 
 26 28 53 
 61 66 69 
 70 41 71 
 4 6 16 
 72 16 6 
 73 19 18 
 74 22 21 
 75 69 76 
 77 62 78 
 79 80 27 
 63 81 64 
 82 60 62 
 83 82 62 
 26 79 27 
 43 84 37 
 35 85 31 
 38 86 57 
 87 76 69 
 52 88 89 
 51 1 56 
 14 84 90 
 43 90 84 
 91 92 13 
 91 8 92 
 70 42 41 
 40 93 41 
 72 94 16 
 95 58 59 
 96 97 65 
 98 13 92 
 99 92 8 
 78 62 100 
 101 102 103 
 43 37 46 
 104 81 105 
 106 107 57 
 108 57 107 
 91 13 33 
 91 32 8 
 72 109 110 
 35 37 82 
 51 111 1 
 2 1 111 
 75 100 69 
 14 16 112 
 113 90 114 
 26 53 52 
 29 115 18 
 70 59 42 
 104 105 116 
 72 110 94 
 68 94 110 
 117 50 49 
 118 119 107 
 14 120 121 
 23 34 122 
 98 92 123 
 99 123 92 
 73 45 33 
 91 33 45 
 61 69 100 
 124 125 109 
 126 109 125 
 14 121 84 
 113 15 90 
 40 42 127 
 77 83 62 
 113 38 15 
 119 101 103 
 98 11 13 
 10 99 8 
 68 120 112 
 128 24 79 
 23 79 24 
 35 82 83 
 119 103 107 
 58 127 42 
 87 129 76 
 54 76 129 
 122 34 130 
 43 47 90 
 60 120 66 
 37 121 82 
 105 131 3 
 40 31 85 
 7 5 116 
 104 116 5 
 61 100 62 
 87 110 132 
 77 78 71 
 113 18 133 
 113 114 18 
 73 18 114 
 68 112 94 
 43 46 44 
 74 36 22 
 35 22 36 
 77 93 83 
 90 47 114 
 91 134 32 
 74 44 46 
 108 102 135 
 14 90 15 
 29 136 115 
 101 137 102 
 108 103 102 
 12 19 33 
 74 21 32 
 73 33 19 
 9 32 21 
 126 125 53 
 51 53 125 
 113 86 38 
 35 83 85 
 68 138 69 
 60 82 121 
 110 109 132 
 37 84 121 
 74 32 134 
 4 139 5 
 104 5 135 
 68 110 138 
 87 138 110 
 64 140 65 
 75 78 100 
 91 45 44 
 126 53 28 
 117 27 80 
 67 31 141 
 7 116 142 
 128 89 88 
 60 121 120 
 14 112 120 
 87 132 143 
 40 141 31 
 77 41 93 
 87 69 138 
 68 66 120 
 104 144 81 
 7 142 145 
 74 134 44 
 73 47 45 
 16 94 112 
 64 81 144 
 124 145 111 
 2 111 145 
 12 17 19 
 20 9 21 
 105 81 131 
 40 127 141 
 106 57 86 
 23 80 79 
 23 122 80 
 146 67 141 
 58 146 127 
 91 44 134 
 26 89 79 
 128 79 89 
 147 50 122 
 117 122 50 
 128 88 148 
 77 71 41 
 18 115 133 
 102 144 135 
 72 6 149 
 7 149 6 
 26 52 89 
 128 148 24 
 39 24 148 
 7 145 149 
 124 149 145 
 124 111 125 
 51 125 111 
 101 150 137 
 147 48 50 
 151 123 99 
 151 98 123 
 104 135 144 
 108 107 103 
 54 129 49 
 55 49 129 
 136 152 115 
 106 115 152 
 74 46 36 
 117 80 122 
 4 57 139 
 72 149 109 
 124 109 149 
 63 131 81 
 147 122 130 
 87 143 129 
 55 129 143 
 83 93 85 
 136 118 152 
 150 96 140 
 73 114 47 
 96 65 140 
 64 137 140 
 150 140 137 
 106 133 115 
 126 132 109 
 108 139 57 
 118 107 152 
 106 152 107 
 55 27 49 
 2 142 3 
 105 3 142 
 105 142 116 
 40 85 93 
 55 143 28 
 126 28 143 
 108 135 139 
 5 139 135 
 102 137 144 
 64 144 137 
 117 49 27 
 106 86 133 
 146 141 127 
 2 145 142 
 126 143 132 
 113 133 86 
