 TITLE      =  "2D FE Unstructured grid data" 
 VARIABLES = "X", "Y"
 ZONE T="P1", F=FEPOINT, N=           9  E=           0  ET=TRIANGLE
 -1.00000000E+00  0.00000000E+00
 -1.00000000E+00  1.00000000E+01
 -1.00000000E+00  1.00000000E+01
 -1.00000000E+00  0.00000000E+00
 -1.00000000E+00  1.38889000E-01
 -1.00000000E+00  2.77778000E-01
 -1.00000000E+00  4.16667000E-01
 -1.00000000E+00  5.55556000E-01
 -1.00000000E+00  6.94444000E-01
