TITLE      =  "2D FE Unstructured grid data" 
VARIABLES = "X", "Y", "U", "Dom" 
ZONE T="P1", F=FEPOINT, N= 533 E= 964  ET=TRIANGLE 
 2.200000 10.000000 12.200000 2
 2.299995 9.826796 12.126792 2
 2.400000 10.000000 12.400000 2
 2.499999 9.826795 12.326799 2
 2.600000 10.000000 12.600000 2
 2.700000 9.826795 12.526801 2
 2.800000 10.000000 12.800000 2
 2.900000 9.826795 12.726802 2
 3.000000 10.000000 13.000000 2
 3.100000 9.826795 12.926796 2
 3.200000 10.000000 13.200000 2
 3.300000 9.826795 13.126798 2
 3.400000 10.000000 13.400000 2
 3.500000 9.826795 13.326806 2
 3.600000 10.000000 13.600000 2
 3.700000 9.826795 13.526804 2
 3.800000 10.000000 13.800000 2
 3.900000 9.826795 13.726805 2
 4.000000 10.000000 14.000000 2
 4.100000 9.826795 13.926805 2
 4.200000 10.000000 14.200000 2
 2.099984 9.826799 11.926782 2
 2.199967 9.653599 11.853567 2
 2.399989 9.653590 12.053586 2
 2.599997 9.653589 12.253592 2
 2.799999 9.653589 12.453594 2
 3.000000 9.653590 12.653598 2
 3.200000 9.653590 12.853597 2
 3.400000 9.653590 13.053605 2
 3.600000 9.653590 13.253607 2
 3.800000 9.653590 13.453604 2
 4.000000 9.653590 13.653604 2
 2.299935 9.480390 11.780331 2
 2.499976 9.480380 11.980365 2
 2.699993 9.480382 12.180383 2
 2.899999 9.480384 12.380392 2
 3.100000 9.480385 12.580395 2
 3.300000 9.480385 12.780401 2
 3.500000 9.480385 12.980402 2
 3.700000 9.480385 13.180405 2
 3.900000 9.480385 13.380408 2
 2.399874 9.307160 11.707042 2
 2.599952 9.307162 11.907129 2
 2.799986 9.307173 12.107173 2
 2.999997 9.307178 12.307194 2
 3.200000 9.307179 12.507195 2
 3.400000 9.307179 12.707207 2
 3.600000 9.307179 12.907200 2
 3.800000 9.307179 13.107206 2
 2.199725 9.307206 11.506938 2
 4.000000 9.307179 13.307206 2
 2.299514 9.133916 11.433440 2
 2.499775 9.133906 11.633693 2
 2.699914 9.133938 11.833867 2
 2.899974 9.133962 12.033953 2
 3.099994 9.133972 12.233986 2
 3.299999 9.133974 12.433996 2
 3.500000 9.133975 12.633992 2
 3.700000 9.133975 12.834003 2
 3.900000 9.133975 13.034009 2
 2.099104 9.134078 11.233190 2
 4.100000 9.133975 13.234011 2
 2.198525 8.960625 11.159160 2
 2.399208 8.960560 11.359785 2
 2.599639 8.960635 11.560291 2
 2.799864 8.960711 11.760593 2
 2.999959 8.960751 11.960729 2
 3.199991 8.960765 12.160778 2
 3.399999 8.960769 12.360794 2
 3.600000 8.960770 12.560790 2
 3.800000 8.960770 12.760805 2
 4.000000 8.960770 12.960804 2
 1.997642 8.961090 10.958746 2
 4.200000 8.960770 13.160812 2
 2.096297 8.787249 10.883556 2
 2.297776 8.787024 11.084808 2
 2.498837 8.787168 11.286022 2
 2.699479 8.787353 11.486846 2
 2.899807 8.787477 11.687302 2
 3.099944 8.787536 11.887502 2
 3.299988 8.787558 12.087570 2
 3.499998 8.787563 12.287586 2
 3.700000 8.787564 12.487595 2
 3.900000 8.787564 12.687603 2
 4.100000 8.787564 12.887604 2
 2.194823 8.613128 10.807967 2
 2.396979 8.613378 11.010367 2
 2.598446 8.613739 11.212197 2
 2.799324 8.614036 11.413375 2
 2.999760 8.614221 11.614003 2
 3.199934 8.614312 11.814268 2
 3.399987 8.614347 12.014359 2
 3.599998 8.614357 12.214386 2
 3.800000 8.614359 12.414390 2
 4.000000 8.614359 12.614396 2
 1.991925 8.613585 10.605517 2
 4.200000 8.614359 12.814406 2
 2.089862 8.438546 10.528411 2
 2.293504 8.439113 10.732625 2
 2.496213 8.439630 10.935856 2
 2.698119 8.440176 11.138314 2
 2.899234 8.440637 11.339887 2
 3.099753 8.440932 11.540701 2
 3.299941 8.441079 11.741041 2
 3.499990 8.441135 11.941158 2
 3.699999 8.441151 12.141183 2
 3.900000 8.441154 12.341190 2
 4.100000 8.441154 12.541196 2
 4.300000 8.441154 12.741201 2
 4.400000 8.614359 13.014410 2
 4.500000 8.441154 12.941208 2
 2.188312 8.264641 10.452954 2
 2.392163 8.264791 10.656961 2
 2.595653 8.265425 10.861092 2
 2.798052 8.266356 11.064420 2
 2.999314 8.267144 11.266478 2
 3.199824 8.267626 11.467473 2
 3.399973 8.267846 11.667852 2
 3.600001 8.267923 11.867955 2
 3.800002 8.267944 12.067983 2
 4.000000 8.267949 12.267994 2
 4.200000 8.267949 12.468002 2
 4.400000 8.267949 12.668003 2
 4.600000 8.267949 12.868009 2
 2.285515 8.089336 10.374849 2
 2.491219 8.088972 10.580196 2
 2.695870 8.090572 10.786453 2
 2.898513 8.092359 10.990888 2
 3.099648 8.093670 11.193335 2
 3.299981 8.094345 11.394353 2
 3.500030 8.094620 11.594679 2
 3.700018 8.094711 11.794766 2
 3.900006 8.094737 11.994787 2
 4.100001 8.094743 12.194787 2
 4.300000 8.094744 12.394801 2
 4.500000 8.094744 12.594804 2
 2.081671 8.092043 10.173707 2
 4.700000 8.094744 12.794807 2
 2.174426 7.914770 10.089192 2
 2.383395 7.908900 10.292287 2
 2.592511 7.912008 10.504522 2
 2.797459 7.915435 10.712907 2
 2.999648 7.918645 10.918313 2
 3.200182 7.920352 11.120557 2
 3.400192 7.921098 11.321321 2
 3.600108 7.921392 11.521530 2
 3.800045 7.921496 11.721582 2
 4.000014 7.921528 11.921585 2
 4.200003 7.921536 12.121589 2
 4.400000 7.921538 12.321597 2
 4.600000 7.921539 12.521600 2
 4.800000 7.921539 12.721603 2
 2.266146 7.714409 9.980549 2
 2.078538 7.767920 9.846451 2
 2.083716 7.597122 9.680832 2
 2.489129 7.730742 10.219869 2
 2.696465 7.733715 10.430191 2
 2.900723 7.741913 10.642645 2
 3.101047 7.745561 10.846626 2
 3.300744 7.747126 11.047886 2
 3.500437 7.747838 11.248304 2
 3.700216 7.748157 11.448411 2
 3.900084 7.748278 11.648404 2
 4.100024 7.748317 11.848390 2
 4.300004 7.748328 12.048385 2
 4.500000 7.748332 12.248387 2
 4.700000 7.748333 12.448388 2
 4.900000 7.748334 12.648397 2
 5.000000 7.921539 12.921607 2
 5.100000 7.748334 12.848401 2
 5.200000 7.921539 13.121607 2
 2.250219 7.500392 9.750612 2
 5.300000 7.748334 13.048398 2
 2.403279 7.577728 9.981008 2
 2.592106 7.533823 10.125927 2
 2.806262 7.564362 10.370629 2
 3.003457 7.570261 10.573730 2
 3.202073 7.572492 10.774589 2
 3.401317 7.573784 10.975124 2
 3.600752 7.574581 11.175361 2
 3.800338 7.574939 11.375316 2
 4.000111 7.575061 11.575217 2
 4.200021 7.575100 11.775166 2
 4.399998 7.575116 11.975173 2
 4.599997 7.575124 12.175177 2
 4.799999 7.575128 12.375188 2
 5.000000 7.575129 12.575188 2
 5.200000 7.575129 12.775192 2
 5.500000 7.748334 13.248403 2
 5.400000 7.575129 12.975190 2
 2.418560 7.406425 9.824980 2
 5.599999 7.575131 13.175190 2
 2.598819 7.108148 9.706969 2
 2.422534 7.206843 9.629374 2
 2.423895 7.004465 9.428359 2
 2.593208 7.313585 9.906794 2
 2.737675 7.405842 10.143525 2
 2.907501 7.396818 10.304332 2
 3.104120 7.397239 10.501376 2
 3.303066 7.398692 10.701785 2
 3.502099 7.400577 10.902705 2
 3.701054 7.401469 11.102555 2
 3.900374 7.401756 11.302173 2
 4.100068 7.401834 11.501946 2
 4.299983 7.401870 11.701904 2
 4.499979 7.401898 11.901932 2
 4.699991 7.401915 12.101959 2
 4.899998 7.401922 12.301974 2
 5.100000 7.401924 12.501983 2
 5.300002 7.401923 12.701982 2
 5.500004 7.401923 12.901985 2
 5.800000 7.575148 13.375208 2
 5.700010 7.401937 13.102000 2
 2.596188 6.903456 9.499645 2
 5.900026 7.402008 13.302084 2
 2.767443 7.001482 9.768931 2
 2.789770 7.217824 10.007599 2
 3.004847 7.222243 10.227098 2
 3.205392 7.220417 10.425828 2
 3.405137 7.225986 10.631145 2
 3.602723 7.228052 10.830808 2
 3.800975 7.228528 11.029537 2
 4.000141 7.228550 11.228728 2
 4.199892 7.228564 11.428498 2
 4.399891 7.228621 11.628557 2
 4.599943 7.228674 11.828658 2
 4.799980 7.228704 12.028729 2
 4.999997 7.228715 12.228756 2
 5.200007 7.228717 12.428777 2
 5.400022 7.228714 12.628787 2
 5.600050 7.228718 12.828825 2
 5.800099 7.228773 13.028927 2
 6.000179 7.228998 13.229226 2
 6.100066 7.402225 13.502338 2
 2.766730 6.802329 9.569057 2
 6.200305 7.229566 13.429916 2
 2.941442 6.502273 9.443719 2
 2.768332 6.601799 9.370131 2
 2.769780 6.401011 9.170795 2
 2.938346 6.703360 9.641710 2
 2.933628 6.902309 9.835943 2
 2.919777 7.074007 9.993793 2
 3.103961 7.025118 10.129089 2
 3.312979 7.051863 10.364861 2
 3.506199 7.055682 10.561906 2
 3.702053 7.055967 10.758049 2
 3.900093 7.055463 10.955582 2
 4.099527 7.055203 11.154767 2
 4.299567 7.055236 11.354844 2
 4.499747 7.055355 11.555145 2
 4.699891 7.055447 11.755383 2
 4.899968 7.055492 11.955500 2
 5.100009 7.055508 12.155563 2
 5.300053 7.055508 12.355603 2
 5.500133 7.055498 12.555683 2
 5.700271 7.055514 12.755833 2
 5.900481 7.055684 12.956211 2
 6.100739 7.056276 13.157060 2
 2.943111 6.301359 9.244474 2
 2.944321 6.100876 9.045205 2
 2.944842 5.900488 8.845336 2
 3.118761 6.001706 9.120479 2
 3.117218 6.202582 9.319807 2
 3.114595 6.402964 9.517570 2
 3.113686 6.605107 9.718799 2
 3.105796 6.807573 9.913379 2
 3.246566 6.896933 10.143515 2
 3.411945 6.887214 10.299173 2
 3.603405 6.885714 10.489141 2
 3.799394 6.883211 10.682631 2
 3.998385 6.881881 10.880296 2
 4.198628 6.881684 11.080347 2
 4.399142 6.881866 11.281042 2
 4.599571 6.882074 11.481685 2
 4.799835 6.882210 11.682084 2
 4.999977 6.882277 11.882295 2
 5.200088 6.882298 12.082424 2
 5.400254 6.882287 12.282588 2
 5.600543 6.882260 12.482848 2
 5.801002 6.882306 12.683358 2
 6.001642 6.882720 12.884410 2
 7.050794 6.688996 13.739824 2
 6.886317 6.589180 13.475529 2
 7.055077 6.494744 13.549855 2
 6.884709 6.397314 13.282058 2
 7.055428 6.298376 13.353836 2
 6.881883 6.201017 13.082936 2
 7.054894 6.100076 13.155005 2
 7.054683 5.900492 12.955207 2
 6.880410 6.001700 12.882143 2
 6.880466 5.801201 12.681697 2
 7.054866 5.700380 12.755273 2
 3.118910 5.800822 8.919744 2
 6.202217 6.884153 13.086412 2
 6.895675 6.755200 13.650912 2
 6.881126 5.600614 12.481771 2
 3.118476 5.600294 8.718783 2
 3.293254 5.700898 8.994168 2
 3.294283 5.902485 9.196781 2
 3.293627 6.104989 9.398624 2
 3.288837 6.306361 9.595206 2
 3.282647 6.503179 9.785838 2
 3.298705 6.713931 10.012652 2
 3.504291 6.721057 10.225368 2
 3.696660 6.713190 10.409875 2
 3.895375 6.708621 10.604020 2
 4.096443 6.707893 10.804366 2
 4.297658 6.708089 11.005778 2
 4.498693 6.708449 11.207177 2
 4.699407 6.708754 11.408197 2
 4.899822 6.708954 11.608811 2
 5.100086 6.709057 11.809182 2
 5.300387 6.709079 12.009506 2
 5.500879 6.709036 12.209951 2
 5.701659 6.708968 12.410672 2
 5.902831 6.709016 12.611887 2
 6.104554 6.709742 12.814335 2
 6.305386 6.713605 13.019024 2
 6.402333 6.886526 13.288897 2
 6.712865 6.702562 13.415464 2
 6.719636 6.496871 13.216541 2
 6.710800 6.304371 13.015200 2
 6.705265 6.105090 12.810390 2
 6.704589 5.903231 12.607847 2
 6.705859 5.701594 12.407476 2
 3.292045 5.500215 8.792271 2
 6.502120 6.718897 13.221054 2
 6.707357 5.500651 12.208035 2
 3.291081 5.099869 8.390966 2
 3.291190 4.899559 8.190763 2
 3.464505 4.999568 8.464096 2
 3.291326 5.300003 8.591344 2
 3.464505 5.199877 8.664401 2
 3.465260 5.399986 8.865263 2
 3.467137 5.600390 9.067547 2
 3.470250 5.802162 9.272429 2
 3.472327 6.006245 9.478586 2
 3.471079 6.213562 9.684653 2
 3.453721 6.414768 9.868504 2
 3.425761 6.579841 10.005618 2
 3.588941 6.549791 10.138752 2
 3.787873 6.533646 10.321542 2
 3.992395 6.533657 10.526076 2
 4.194744 6.533955 10.728724 2
 4.396751 6.534371 10.931149 2
 4.598332 6.534884 11.133247 2
 4.799354 6.535357 11.334740 2
 4.999966 6.535686 11.535692 2
 5.200480 6.535843 11.736365 2
 5.401215 6.535832 11.937080 2
 5.602376 6.535713 12.138123 2
 5.804008 6.535583 12.339628 2
 6.006344 6.535356 12.541737 2
 6.211658 6.534869 12.746560 2
 6.412555 6.549319 12.961912 2
 6.578311 6.575870 13.154212 2
 6.546807 6.413328 12.960172 2
 6.527711 6.214071 12.741809 2
 6.525961 6.007545 12.533535 2
 6.528104 5.803442 12.331573 2
 6.531502 5.601285 12.132808 2
 3.465122 4.798721 8.263865 2
 6.533750 5.400454 11.934228 2
 3.638500 4.898977 8.537498 2
 3.637753 5.099737 8.737513 2
 3.638042 5.299843 8.937902 2
 3.639778 5.499630 9.139425 2
 3.644010 5.699929 9.343954 2
 3.652457 5.904323 9.556795 2
 3.653785 6.112446 9.766253 2
 3.664689 6.340184 10.004891 2
 3.888225 6.359203 10.247447 2
 4.090245 6.359823 10.450091 2
 4.293159 6.359688 10.652874 2
 4.496118 6.360181 10.856322 2
 4.698299 6.361084 11.059412 2
 4.899611 6.361925 11.261565 2
 5.100480 6.362470 11.462978 2
 5.301454 6.362638 11.664121 2
 5.503009 6.362456 11.865492 2
 5.705275 6.362261 12.067562 2
 5.907762 6.362350 12.270142 2
 6.109875 6.361391 12.471298 2
 6.334133 6.341391 12.675553 2
 6.344007 6.114423 12.458457 2
 6.344969 5.906408 12.251404 2
 6.353383 5.701550 12.054955 2
 6.357897 5.500551 11.858474 2
 6.534873 5.200035 11.734933 2
 6.360236 5.300147 11.660401 2
 6.535142 4.999551 11.534714 2
 6.361205 5.099681 11.460903 2
 3.640344 4.697091 8.337451 2
 6.360919 4.898767 11.259705 2
 3.646656 4.287077 7.933750 2
 3.824738 4.387755 8.212509 2
 3.643370 4.493326 8.136716 2
 3.818118 4.594825 8.412964 2
 3.813838 4.798208 8.612067 2
 3.811523 4.999689 8.811231 2
 3.810730 5.200062 9.010814 2
 3.811397 5.399538 9.210953 2
 3.814403 5.598020 9.412440 2
 3.822016 5.795403 9.617433 2
 3.854137 6.010942 9.865094 2
 3.809010 6.201818 10.010852 2
 3.984338 6.187819 10.172176 2
 4.187131 6.184612 10.371767 2
 4.392108 6.183928 10.576061 2
 4.596367 6.185392 10.781787 2
 4.798958 6.187218 10.986204 2
 5.000427 6.188671 11.189126 2
 5.201601 6.189420 11.391046 2
 5.403275 6.189375 11.592672 2
 5.606243 6.188517 11.794784 2
 5.810252 6.188671 11.998944 2
 6.012845 6.191037 12.203907 2
 6.188544 6.204307 12.392878 2
 6.142501 6.014085 12.156607 2
 6.173831 5.798148 11.971998 2
 6.180956 5.599769 11.780744 2
 6.184464 5.400049 11.584528 2
 6.186517 5.199762 11.386293 2
 6.187013 4.999155 11.186179 2
 3.831830 4.173845 8.005692 2
 6.185367 4.797679 10.983059 2
 4.013954 4.282567 8.296538 2
 3.999677 4.493560 8.493259 2
 3.991608 4.698021 8.689650 2
 3.986436 4.900120 8.886577 2
 3.983922 5.100821 9.084764 2
 3.982996 5.300550 9.283564 2
 3.983646 5.498712 9.482378 2
 3.987065 5.694353 9.681437 2
 3.981576 5.864599 9.846197 2
 4.076795 6.010706 10.087520 2
 4.284914 6.004316 10.289253 2
 4.493441 6.007114 10.500575 2
 4.698170 6.010512 10.708707 2
 4.900598 6.013912 10.914532 2
 5.101937 6.015899 11.117853 2
 5.303375 6.016687 11.320086 2
 5.505675 6.015846 11.521540 2
 5.711651 6.011814 11.723481 2
 5.919065 6.015594 11.934677 2
 6.013193 5.868949 11.882159 2
 6.005376 5.697934 11.703327 2
 6.007524 5.499849 11.507388 2
 6.010387 5.299516 11.309919 2
 6.012669 5.099244 11.111927 2
 6.011981 4.898929 10.910924 2
 6.007491 4.697156 10.704656 2
 4.182033 4.398869 8.580918 2
 4.173604 4.599751 8.773373 2
 4.162862 4.802161 8.965040 2
 4.158014 5.002370 9.160402 2
 4.155569 5.202445 9.358027 2
 4.153769 5.401451 9.555233 2
 4.153236 5.597424 9.750683 2
 4.168516 5.810633 9.979169 2
 4.390712 5.826420 10.217152 2
 4.597642 5.829285 10.426951 2
 4.801918 5.837666 10.639602 2
 5.002956 5.841684 10.844656 2
 5.204089 5.843764 11.047872 2
 5.405334 5.844797 11.250149 2
 5.605592 5.842818 11.448428 2
 5.823790 5.818390 11.642195 2
 5.830368 5.601433 11.431816 2
 5.830495 5.399161 11.229666 2
 5.837409 5.197886 11.035305 2
 5.839147 4.999345 10.838505 2
 5.835851 4.800506 10.636367 2
 5.825511 4.598698 10.424219 2
 4.371658 4.498763 8.870434 2
 4.339408 4.709141 9.048564 2
 4.332259 4.905314 9.237588 2
 4.329537 5.104638 9.434191 2
 4.326573 5.305268 9.631856 2
 4.321475 5.503583 9.825076 2
 4.305547 5.674067 9.979635 2
 4.494113 5.630286 10.124416 2
 4.707891 5.660985 10.368887 2
 4.905374 5.667368 10.572756 2
 5.105484 5.669804 10.775299 2
 5.307206 5.672304 10.979520 2
 5.507359 5.675951 11.183323 2
 5.680120 5.688616 11.368743 2
 5.632827 5.502974 11.135810 2
 5.661818 5.291677 10.953508 2
 5.666818 5.097191 10.764018 2
 5.666323 4.901888 10.568217 2
 5.659755 4.707521 10.367285 2
 5.627558 4.497765 10.125331 2
 4.496521 4.641739 9.138276 2
 4.503991 4.810073 9.314076 2
 4.502879 5.005909 9.508797 2
 4.503939 5.207926 9.711878 2
 4.496449 5.411569 9.908024 2
 4.640123 5.503543 10.143677 2
 4.809714 5.495664 10.305389 2
 5.006308 5.496612 10.502934 2
 5.208943 5.495486 10.704437 2
 5.413343 5.502380 10.915730 2
 5.504851 5.359362 10.864221 2
 5.496418 5.191912 10.688334 2
 5.497002 4.999701 10.496707 2
 5.495658 4.807553 10.303220 2
 5.502953 4.640473 10.143432 2
 5.410894 4.498173 9.909073 2
 4.682240 4.694730 9.376981 2
 4.673819 4.906794 9.580621 2
 4.676157 5.103004 9.779169 2
 4.693971 5.318064 10.012045 2
 4.906869 5.326146 10.233023 2
 5.103649 5.323884 10.427544 2
 5.319131 5.306384 10.625524 2
 5.327497 5.096061 10.423562 2
 5.327126 4.903711 10.230844 2
 5.317714 4.693514 10.011236 2
 5.206214 4.504466 9.710690 2
 4.999890 4.503228 9.503125 2
 5.100462 4.676728 9.777195 2
 4.899690 4.677087 9.576784 2
 4.822480 4.827415 9.649902 2
 4.857446 5.002383 9.859836 2
 4.827077 5.178535 10.005621 2
 5.002749 5.143690 10.146446 2
 5.179523 5.174121 10.353649 2
 5.145241 5.000305 10.145546 2
 5.178312 4.826221 10.004539 2
 5.000582 4.858382 9.858969 2
 5.001305 5.000966 10.002278 2
 1 2 3 
 3 4 5 
 5 6 7 
 7 8 9 
 9 10 11 
 11 12 13 
 13 14 15 
 15 16 17 
 17 18 19 
 19 20 21 
 22 2 1 
 2 4 3 
 4 6 5 
 6 8 7 
 8 10 9 
 10 12 11 
 12 14 13 
 14 16 15 
 16 18 17 
 18 20 19 
 22 23 2 
 2 24 4 
 4 25 6 
 6 26 8 
 8 27 10 
 10 28 12 
 12 29 14 
 14 30 16 
 16 31 18 
 18 32 20 
 23 24 2 
 24 25 4 
 25 26 6 
 26 27 8 
 27 28 10 
 28 29 12 
 29 30 14 
 30 31 16 
 31 32 18 
 23 33 24 
 24 34 25 
 25 35 26 
 26 36 27 
 27 37 28 
 28 38 29 
 29 39 30 
 30 40 31 
 31 41 32 
 33 34 24 
 34 35 25 
 35 36 26 
 36 37 27 
 37 38 28 
 38 39 29 
 39 40 30 
 40 41 31 
 33 42 34 
 43 35 34 
 35 44 36 
 45 37 36 
 37 46 38 
 38 47 39 
 39 48 40 
 40 49 41 
 50 42 33 
 42 43 34 
 44 35 43 
 44 45 36 
 46 37 45 
 46 47 38 
 47 48 39 
 48 49 40 
 49 51 41 
 50 52 42 
 53 43 42 
 43 54 44 
 44 55 45 
 56 46 45 
 57 47 46 
 47 58 48 
 59 49 48 
 49 60 51 
 61 52 50 
 52 53 42 
 54 43 53 
 54 55 44 
 55 56 45 
 57 46 56 
 58 47 57 
 58 59 48 
 60 49 59 
 60 62 51 
 61 63 52 
 52 64 53 
 53 65 54 
 54 66 55 
 67 56 55 
 56 68 57 
 57 69 58 
 58 70 59 
 71 60 59 
 72 62 60 
 73 63 61 
 63 64 52 
 64 65 53 
 65 66 54 
 66 67 55 
 68 56 67 
 68 69 57 
 69 70 58 
 70 71 59 
 72 60 71 
 74 62 72 
 75 63 73 
 63 76 64 
 77 65 64 
 65 78 66 
 66 79 67 
 67 80 68 
 68 81 69 
 82 70 69 
 83 71 70 
 71 84 72 
 72 85 74 
 76 63 75 
 76 77 64 
 78 65 77 
 78 79 66 
 79 80 67 
 80 81 68 
 81 82 69 
 83 70 82 
 84 71 83 
 84 85 72 
 76 75 86 
 87 77 76 
 77 88 78 
 78 89 79 
 79 90 80 
 80 91 81 
 81 92 82 
 82 93 83 
 83 94 84 
 84 95 85 
 75 96 86 
 76 86 87 
 88 77 87 
 88 89 78 
 89 90 79 
 90 91 80 
 91 92 81 
 92 93 82 
 93 94 83 
 94 95 84 
 95 97 85 
 96 98 86 
 87 86 99 
 88 87 100 
 101 89 88 
 102 90 89 
 90 103 91 
 91 104 92 
 105 93 92 
 93 106 94 
 94 107 95 
 95 108 97 
 97 109 110 
 98 99 86 
 87 99 100 
 88 100 101 
 102 89 101 
 103 90 102 
 103 104 91 
 104 105 92 
 106 93 105 
 106 107 94 
 107 108 95 
 108 109 97 
 109 111 110 
 98 112 99 
 99 113 100 
 101 100 114 
 102 101 115 
 102 116 103 
 117 104 103 
 118 105 104 
 105 119 106 
 107 106 120 
 121 108 107 
 122 109 108 
 123 111 109 
 112 113 99 
 113 114 100 
 101 114 115 
 102 115 116 
 116 117 103 
 118 104 117 
 119 105 118 
 119 120 106 
 107 120 121 
 122 108 121 
 123 109 122 
 124 111 123 
 112 125 113 
 113 126 114 
 114 127 115 
 116 115 128 
 117 116 129 
 130 118 117 
 118 131 119 
 132 120 119 
 133 121 120 
 134 122 121 
 122 135 123 
 124 123 136 
 112 137 125 
 125 126 113 
 126 127 114 
 127 128 115 
 116 128 129 
 117 129 130 
 131 118 130 
 131 132 119 
 133 120 132 
 134 121 133 
 135 122 134 
 135 136 123 
 124 136 138 
 125 137 139 
 125 140 126 
 127 126 141 
 127 142 128 
 128 143 129 
 130 129 144 
 131 130 145 
 146 132 131 
 147 133 132 
 148 134 133 
 149 135 134 
 135 150 136 
 151 138 136 
 125 139 140 
 140 141 126 
 127 141 142 
 142 143 128 
 143 144 129 
 130 144 145 
 131 145 146 
 147 132 146 
 148 133 147 
 149 134 148 
 150 135 149 
 150 151 136 
 152 138 151 
 153 154 155 
 139 154 153 
 140 139 153 
 140 156 141 
 142 141 157 
 143 142 158 
 143 159 144 
 144 160 145 
 161 146 145 
 162 147 146 
 147 163 148 
 148 164 149 
 150 149 165 
 166 151 150 
 167 152 151 
 168 169 152 
 169 170 171 
 172 153 155 
 140 153 156 
 156 157 141 
 142 157 158 
 143 158 159 
 159 160 144 
 160 161 145 
 162 146 161 
 163 147 162 
 163 164 148 
 164 165 149 
 150 165 166 
 167 151 166 
 168 152 167 
 170 169 168 
 170 173 171 
 174 153 172 
 156 153 174 
 156 175 157 
 158 157 176 
 159 158 177 
 160 159 178 
 161 160 179 
 161 180 162 
 162 181 163 
 182 164 163 
 183 165 164 
 184 166 165 
 166 185 167 
 167 186 168 
 170 168 187 
 173 170 188 
 189 173 190 
 174 172 191 
 156 174 175 
 175 176 157 
 158 176 177 
 159 177 178 
 160 178 179 
 161 179 180 
 180 181 162 
 181 182 163 
 183 164 182 
 184 165 183 
 185 166 184 
 185 186 167 
 186 187 168 
 170 187 188 
 173 188 190 
 189 190 192 
 193 194 195 
 191 194 196 
 174 191 175 
 175 197 176 
 176 198 177 
 178 177 199 
 179 178 200 
 179 201 180 
 202 181 180 
 181 203 182 
 182 204 183 
 184 183 205 
 185 184 206 
 207 186 185 
 187 186 208 
 187 209 188 
 188 210 190 
 190 211 192 
 212 192 213 
 214 193 195 
 196 194 193 
 191 196 175 
 197 198 176 
 196 197 175 
 198 199 177 
 178 199 200 
 179 200 201 
 201 202 180 
 203 181 202 
 203 204 182 
 204 205 183 
 184 205 206 
 185 206 207 
 208 186 207 
 187 208 209 
 209 210 188 
 210 211 190 
 211 213 192 
 212 213 215 
 193 214 216 
 217 196 193 
 197 217 198 
 197 196 217 
 198 218 199 
 199 219 200 
 200 220 201 
 202 201 221 
 202 222 203 
 204 203 223 
 224 205 204 
 205 225 206 
 206 226 207 
 208 207 227 
 209 208 228 
 229 210 209 
 230 211 210 
 231 213 211 
 213 232 215 
 215 233 234 
 216 214 235 
 216 217 193 
 217 218 198 
 218 219 199 
 219 220 200 
 220 221 201 
 202 221 222 
 222 223 203 
 204 223 224 
 225 205 224 
 225 226 206 
 226 227 207 
 208 227 228 
 209 228 229 
 230 210 229 
 231 211 230 
 232 213 231 
 232 233 215 
 233 236 234 
 237 238 239 
 240 235 238 
 216 235 241 
 217 216 242 
 217 242 218 
 218 243 219 
 219 244 220 
 245 221 220 
 221 246 222 
 247 223 222 
 223 248 224 
 224 249 225 
 250 226 225 
 227 226 251 
 227 252 228 
 253 229 228 
 254 230 229 
 255 231 230 
 232 231 256 
 257 233 232 
 236 233 258 
 259 237 239 
 237 240 238 
 241 235 240 
 242 216 241 
 218 242 243 
 243 244 219 
 244 245 220 
 246 221 245 
 246 247 222 
 248 223 247 
 248 249 224 
 249 250 225 
 251 226 250 
 227 251 252 
 252 253 228 
 254 229 253 
 255 230 254 
 256 231 255 
 232 256 257 
 258 233 257 
 260 261 262 
 263 259 260 
 264 237 259 
 265 240 237 
 266 241 240 
 243 242 241 
 243 267 244 
 244 268 245 
 246 245 269 
 247 246 270 
 247 271 248 
 272 249 248 
 273 250 249 
 250 274 251 
 275 252 251 
 276 253 252 
 277 254 253 
 278 255 254 
 279 256 255 
 257 256 280 
 281 258 257 
 282 283 284 
 284 285 286 
 287 288 286 
 289 288 290 
 291 292 289 
 262 261 293 
 262 263 260 
 263 264 259 
 264 265 237 
 265 266 240 
 243 241 266 
 267 268 244 
 243 266 267 
 268 269 245 
 246 269 270 
 247 270 271 
 271 272 248 
 273 249 272 
 274 250 273 
 274 275 251 
 276 252 275 
 277 253 276 
 278 254 277 
 279 255 278 
 280 256 279 
 257 280 281 
 294 258 281 
 282 295 283 
 284 283 285 
 285 287 286 
 290 288 287 
 290 291 289 
 292 291 296 
 297 298 293 
 293 299 262 
 300 263 262 
 301 264 263 
 265 264 302 
 303 266 265 
 303 268 267 
 266 303 267 
 268 304 269 
 269 305 270 
 271 270 306 
 272 271 307 
 308 273 272 
 273 309 274 
 274 310 275 
 311 276 275 
 312 277 276 
 277 313 278 
 278 314 279 
 315 280 279 
 316 281 280 
 281 317 294 
 294 318 319 
 295 320 283 
 321 285 283 
 287 285 322 
 290 287 323 
 290 324 291 
 325 296 291 
 297 326 298 
 293 298 299 
 299 300 262 
 300 301 263 
 302 264 301 
 302 303 265 
 304 268 303 
 304 305 269 
 305 306 270 
 271 306 307 
 272 307 308 
 309 273 308 
 309 310 274 
 310 311 275 
 312 276 311 
 313 277 312 
 313 314 278 
 314 315 279 
 316 280 315 
 317 281 316 
 317 318 294 
 318 327 319 
 320 321 283 
 322 285 321 
 323 287 322 
 290 323 324 
 324 325 291 
 328 296 325 
 329 330 331 
 332 329 333 
 326 332 334 
 326 335 298 
 336 299 298 
 300 299 337 
 338 301 300 
 339 302 301 
 303 302 340 
 303 340 304 
 304 341 305 
 306 305 342 
 306 343 307 
 308 307 344 
 309 308 345 
 346 310 309 
 310 347 311 
 311 348 312 
 312 349 313 
 313 350 314 
 314 351 315 
 352 316 315 
 316 353 317 
 317 354 318 
 355 327 318 
 327 356 320 
 356 321 320 
 321 357 322 
 322 358 323 
 324 323 359 
 325 324 360 
 328 325 361 
 331 330 362 
 333 329 331 
 334 332 333 
 326 334 335 
 335 336 298 
 337 299 336 
 337 338 300 
 338 339 301 
 340 302 339 
 304 340 341 
 341 342 305 
 306 342 343 
 343 344 307 
 308 344 345 
 309 345 346 
 347 310 346 
 347 348 311 
 348 349 312 
 349 350 313 
 350 351 314 
 351 352 315 
 353 316 352 
 353 354 317 
 354 355 318 
 356 327 355 
 321 356 357 
 322 357 358 
 359 323 358 
 360 324 359 
 361 325 360 
 363 328 361 
 362 364 331 
 333 331 365 
 333 366 334 
 334 367 335 
 336 335 368 
 336 369 337 
 338 337 370 
 371 339 338 
 339 341 340 
 371 342 341 
 342 372 343 
 373 344 343 
 374 345 344 
 346 345 375 
 347 346 376 
 377 348 347 
 349 348 378 
 349 379 350 
 350 380 351 
 352 351 381 
 382 353 352 
 353 383 354 
 354 384 355 
 356 355 357 
 358 357 384 
 385 359 358 
 360 359 386 
 387 361 360 
 363 361 388 
 389 363 390 
 391 389 392 
 362 393 364 
 365 331 364 
 333 365 366 
 334 366 367 
 368 335 367 
 336 368 369 
 370 337 369 
 370 371 338 
 339 371 341 
 372 342 371 
 372 373 343 
 374 344 373 
 375 345 374 
 346 375 376 
 347 376 377 
 378 348 377 
 349 378 379 
 379 380 350 
 380 381 351 
 352 381 382 
 383 353 382 
 383 384 354 
 384 357 355 
 384 385 358 
 386 359 385 
 386 387 360 
 388 361 387 
 390 363 388 
 392 389 390 
 391 392 394 
 395 396 397 
 393 397 398 
 399 364 393 
 364 400 365 
 401 366 365 
 367 366 402 
 368 367 403 
 369 368 404 
 369 405 370 
 370 406 371 
 406 372 371 
 407 373 372 
 373 408 374 
 374 409 375 
 410 376 375 
 377 376 411 
 412 378 377 
 413 379 378 
 380 379 414 
 381 380 415 
 381 416 382 
 382 417 383 
 383 418 384 
 418 385 384 
 419 386 385 
 420 387 386 
 421 388 387 
 422 390 388 
 423 392 390 
 394 392 424 
 395 425 396 
 398 397 396 
 398 399 393 
 364 399 400 
 400 401 365 
 402 366 401 
 403 367 402 
 404 368 403 
 369 404 405 
 370 405 406 
 406 407 372 
 408 373 407 
 408 409 374 
 409 410 375 
 411 376 410 
 377 411 412 
 413 378 412 
 414 379 413 
 380 414 415 
 381 415 416 
 416 417 382 
 417 418 383 
 418 419 385 
 419 420 386 
 420 421 387 
 421 422 388 
 422 423 390 
 424 392 423 
 394 424 426 
 427 396 425 
 396 428 398 
 398 429 399 
 399 430 400 
 400 431 401 
 402 401 432 
 433 403 402 
 404 403 434 
 405 404 435 
 406 405 407 
 407 436 408 
 408 437 409 
 410 409 438 
 410 439 411 
 440 412 411 
 412 441 413 
 413 442 414 
 415 414 443 
 416 415 444 
 417 416 445 
 419 418 417 
 446 420 419 
 447 421 420 
 448 422 421 
 449 423 422 
 424 423 450 
 451 426 424 
 396 427 428 
 398 428 429 
 399 429 430 
 400 430 431 
 432 401 431 
 432 433 402 
 434 403 433 
 435 404 434 
 436 405 435 
 407 405 436 
 436 437 408 
 437 438 409 
 410 438 439 
 439 440 411 
 441 412 440 
 441 442 413 
 442 443 414 
 415 443 444 
 416 444 445 
 417 445 419 
 445 446 419 
 446 447 420 
 447 448 421 
 448 449 422 
 450 423 449 
 424 450 451 
 452 426 451 
 427 453 428 
 429 428 454 
 430 429 455 
 431 430 456 
 457 432 431 
 458 433 432 
 434 433 459 
 435 434 460 
 435 460 436 
 460 437 436 
 461 438 437 
 439 438 462 
 440 439 463 
 440 464 441 
 441 465 442 
 442 466 443 
 467 444 443 
 445 444 468 
 445 468 446 
 446 468 447 
 448 447 469 
 470 449 448 
 450 449 471 
 451 450 472 
 451 473 452 
 454 428 453 
 455 429 454 
 456 430 455 
 456 457 431 
 457 458 432 
 459 433 458 
 460 434 459 
 461 437 460 
 462 438 461 
 439 462 463 
 440 463 464 
 464 465 441 
 465 466 442 
 466 467 443 
 468 444 467 
 469 447 468 
 469 470 448 
 471 449 470 
 472 450 471 
 451 472 473 
 473 474 452 
 454 453 475 
 455 454 476 
 456 455 477 
 478 457 456 
 479 458 457 
 459 458 480 
 460 459 481 
 460 481 461 
 482 462 461 
 462 483 463 
 463 484 464 
 465 464 485 
 466 465 486 
 487 467 466 
 488 468 467 
 469 468 488 
 470 469 489 
 490 471 470 
 491 472 471 
 472 492 473 
 473 493 474 
 476 454 475 
 477 455 476 
 477 478 456 
 478 479 457 
 480 458 479 
 459 480 481 
 481 482 461 
 483 462 482 
 483 484 463 
 484 485 464 
 465 485 486 
 466 486 487 
 488 467 487 
 489 469 488 
 489 490 470 
 490 491 471 
 491 492 472 
 492 493 473 
 493 494 474 
 495 476 475 
 477 476 496 
 497 478 477 
 498 479 478 
 480 479 499 
 480 482 481 
 500 483 482 
 484 483 501 
 502 485 484 
 486 485 503 
 487 486 504 
 489 488 487 
 505 490 489 
 506 491 490 
 491 507 492 
 492 508 493 
 509 494 493 
 496 476 495 
 496 497 477 
 497 498 478 
 499 479 498 
 480 499 482 
 499 500 482 
 501 483 500 
 484 501 502 
 503 485 502 
 486 503 504 
 487 504 489 
 504 505 489 
 505 506 490 
 506 507 491 
 507 508 492 
 508 509 493 
 510 494 509 
 511 496 495 
 496 512 497 
 497 513 498 
 499 498 514 
 500 499 514 
 500 514 501 
 515 502 501 
 503 502 516 
 504 503 517 
 504 517 505 
 517 506 505 
 507 506 518 
 507 519 508 
 520 509 508 
 510 509 520 
 510 520 521 
 522 521 523 
 496 511 512 
 497 512 513 
 514 498 513 
 514 515 501 
 516 502 515 
 503 516 517 
 518 506 517 
 507 518 519 
 519 520 508 
 523 521 520 
 523 524 522 
 512 511 525 
 512 526 513 
 527 514 513 
 515 514 527 
 516 515 528 
 516 529 517 
 529 518 517 
 518 530 519 
 519 531 520 
 531 523 520 
 524 523 532 
 525 511 524 
 526 512 525 
 526 527 513 
 528 515 527 
 516 528 529 
 529 530 518 
 530 531 519 
 532 523 531 
 532 525 524 
 532 526 525 
 526 528 527 
 528 530 529 
 532 531 530 
 532 533 526 
 528 526 533 
 528 533 530 
 532 530 533 
