TITLE      =  "2D FE Unstructured grid data" 
VARIABLES = "X", "Y", "U", "Dom" 
ZONE T="P1", F=FEPOINT, N= 531 E= 961  ET=TRIANGLE 
 4.200000 10.000000 14.200000 0
 4.300000 9.826795 14.126809 0
 4.400000 10.000000 14.400000 0
 4.500000 9.826795 14.326808 0
 4.600000 10.000000 14.600000 0
 4.700000 9.826795 14.526807 0
 4.800000 10.000000 14.800000 0
 4.900000 9.826795 14.726810 0
 5.000000 10.000000 15.000000 0
 5.200000 10.000000 15.200000 0
 5.100000 9.826795 14.926805 0
 5.300000 9.826795 15.126807 0
 5.400000 10.000000 15.400000 0
 5.500000 9.826795 15.326810 0
 5.600000 10.000000 15.600000 0
 5.700000 9.826795 15.526805 0
 5.800000 10.000000 15.800000 0
 5.900000 9.826795 15.726810 0
 6.000000 10.000000 16.000000 0
 6.100000 9.826795 15.926808 0
 6.200000 10.000000 16.200001 0
 6.300000 9.826795 16.126812 0
 6.400000 10.000000 16.400000 0
 6.500000 9.826795 16.326805 0
 6.600000 10.000000 16.600000 0
 6.700000 9.826795 16.526806 0
 6.800000 10.000000 16.799999 0
 6.900000 9.826795 16.726799 0
 7.000000 10.000000 17.000000 0
 7.100000 9.826795 16.926802 0
 7.200000 10.000000 17.200001 0
 7.300000 9.826795 17.126810 0
 7.400000 10.000000 17.400000 0
 7.500000 9.826796 17.326794 0
 7.600000 10.000000 17.600000 0
 7.700002 9.826799 17.526793 0
 7.800000 10.000000 17.799999 0
 7.900011 9.826811 17.726824 0
 8.000000 10.000000 18.000000 0
 8.100041 9.826840 17.926886 0
 8.200000 10.000000 18.200001 0
 8.300128 9.826893 18.127031 0
 8.400000 10.000000 18.400000 0
 8.500334 9.826964 18.327307 0
 8.600000 10.000000 18.600000 0
 8.700749 9.827041 18.527784 0
 8.800000 10.000000 18.799999 0
 8.901427 9.827153 18.728577 0
 9.000000 10.000000 19.000000 0
 9.102324 9.827316 18.929642 0
 9.200000 10.000000 19.200001 0
 9.303625 9.827213 19.130840 0
 9.400000 10.000000 19.400000 0
 9.507698 9.826240 19.333933 0
 9.600000 10.000000 19.600000 0
 9.707205 9.840112 19.547316 0
 9.800000 10.000000 19.799999 0
 9.868964 9.869840 19.738808 0
 10.000000 10.000000 20.000000 0
 10.000000 9.800000 19.799999 0
 9.837681 9.709203 19.546869 0
 10.000000 9.600000 19.600000 0
 9.820952 9.509867 19.330818 0
 10.000000 9.400000 19.400000 0
 9.820171 9.304181 19.124359 0
 10.000000 9.200000 19.200001 0
 9.821795 9.101304 18.923098 0
 10.000000 9.000000 19.000000 0
 9.824164 8.900148 18.724319 0
 10.000000 8.800000 18.799999 0
 9.825560 8.699957 18.525518 0
 10.000000 8.600000 18.600000 0
 9.826258 8.499968 18.326225 0
 10.000000 8.400000 18.400000 0
 9.826588 8.299988 18.126587 0
 10.000000 8.200000 18.200001 0
 9.826729 8.099998 17.926729 0
 10.000000 8.000000 18.000000 0
 9.826778 7.900001 17.726791 0
 10.000000 7.800000 17.799999 0
 9.826792 7.700001 17.526796 0
 10.000000 7.600000 17.600000 0
 9.826795 7.500000 17.326807 0
 10.000000 7.400000 17.400000 0
 9.826795 7.300000 17.126797 0
 10.000000 7.200000 17.200001 0
 9.826795 7.100000 16.926807 0
 10.000000 7.000000 17.000000 0
 4.100000 9.826795 13.926805 0
 4.200000 9.653590 13.853611 0
 4.400000 9.653590 14.053613 0
 4.600000 9.653590 14.253617 0
 4.800000 9.653590 14.453617 0
 5.000000 9.653590 14.653620 0
 5.200000 9.653590 14.853611 0
 5.400000 9.653590 15.053614 0
 5.600000 9.653590 15.253621 0
 5.800000 9.653590 15.453614 0
 6.000000 9.653590 15.653615 0
 6.200000 9.653590 15.853610 0
 6.400000 9.653590 16.053606 0
 6.600000 9.653590 16.253601 0
 6.800000 9.653590 16.453598 0
 7.000000 9.653590 16.653605 0
 7.200000 9.653590 16.853609 0
 7.400001 9.653591 17.053598 0
 7.600004 9.653597 17.253605 0
 7.800018 9.653618 17.453648 0
 8.000062 9.653674 17.653744 0
 8.200181 9.653785 17.853985 0
 8.400465 9.653945 18.054420 0
 8.601070 9.654096 18.255173 0
 8.802207 9.654192 18.456404 0
 9.003881 9.654489 18.658373 0
 9.205553 9.655162 18.860720 0
 9.406587 9.654738 19.061325 0
 9.629012 9.635622 19.264631 0
 9.638646 9.410381 19.049015 0
 9.639001 9.203550 18.842554 0
 9.646443 8.999763 18.646210 0
 9.650084 8.799567 18.449661 0
 9.651889 8.599755 18.251648 0
 9.652842 8.399879 18.052719 0
 9.653315 8.199951 17.853273 0
 9.653508 7.999991 17.653505 0
 9.653569 7.800005 17.453575 0
 9.653584 7.600005 17.253597 0
 9.653588 7.400002 17.053593 0
 9.653589 7.200001 16.853600 0
 4.000000 9.653590 13.653604 0
 4.100000 9.480385 13.580415 0
 4.300000 9.480385 13.780422 0
 4.500000 9.480385 13.980416 0
 4.700000 9.480385 14.180421 0
 4.900000 9.480385 14.380418 0
 5.100000 9.480385 14.580421 0
 5.300000 9.480385 14.780418 0
 5.500000 9.480385 14.980420 0
 5.700000 9.480385 15.180419 0
 5.900000 9.480385 15.380415 0
 6.100000 9.480385 15.580418 0
 6.300000 9.480385 15.780415 0
 6.500000 9.480385 15.980413 0
 6.700000 9.480385 16.180407 0
 6.900000 9.480385 16.380396 0
 7.100000 9.480385 16.580393 0
 7.300002 9.480387 16.780407 0
 7.500010 9.480394 16.980410 0
 7.700032 9.480425 17.180456 0
 7.900091 9.480510 17.380598 0
 8.100234 9.480691 17.580933 0
 8.300544 9.480989 17.781542 0
 8.501161 9.481326 17.982496 0
 8.702361 9.481443 18.183821 0
 8.904716 9.481133 18.385855 0
 9.107935 9.482063 18.590004 0
 9.309589 9.485273 18.794872 0
 9.484353 9.499175 18.983526 0
 9.437746 9.309972 18.747736 0
 9.467803 9.095390 18.563202 0
 9.473907 8.897997 18.371914 0
 9.476659 8.699073 18.175741 0
 9.478454 8.499472 17.977942 0
 9.479591 8.299726 17.779331 0
 9.480122 8.099918 17.580050 0
 9.480307 7.900009 17.380318 0
 9.480357 7.700027 17.180391 0
 9.480372 7.500017 16.980396 0
 9.480380 7.300006 16.780390 0
 3.900000 9.480385 13.380408 0
 9.480384 7.100001 16.580389 0
 4.000000 9.307179 13.307206 0
 4.200000 9.307179 13.507216 0
 4.400000 9.307179 13.707215 0
 4.600000 9.307179 13.907215 0
 4.800000 9.307179 14.107220 0
 5.000000 9.307179 14.307226 0
 5.200000 9.307179 14.507218 0
 5.400000 9.307179 14.707217 0
 5.600000 9.307179 14.907223 0
 5.800000 9.307179 15.107224 0
 6.000000 9.307179 15.307221 0
 6.200000 9.307179 15.507214 0
 6.400000 9.307179 15.707208 0
 6.600000 9.307179 15.907209 0
 6.800000 9.307179 16.107201 0
 7.000001 9.307179 16.307199 0
 7.200006 9.307181 16.507204 0
 7.400021 9.307189 16.707224 0
 7.600062 9.307224 16.907297 0
 7.800154 9.307332 17.107496 0
 8.000341 9.307586 17.307940 0
 8.200694 9.308045 17.508757 0
 8.401299 9.308702 17.710012 0
 8.602229 9.309296 17.911539 0
 8.803866 9.308906 18.112783 0
 9.008959 9.305711 18.314676 0
 9.215408 9.310452 18.525869 0
 9.308238 9.165133 18.473372 0
 9.299490 8.995043 18.294550 0
 9.300645 8.797984 18.098642 0
 9.302873 8.598524 17.901411 0
 9.305339 8.398994 17.704348 0
 9.306558 8.199627 17.506191 0
 9.306973 8.000001 17.306992 0
 9.307079 7.800108 17.107195 0
 9.307117 7.600085 16.907215 0
 9.307146 7.400040 16.707201 0
 9.307167 7.200013 16.507187 0
 4.100000 9.133975 13.234011 0
 4.300000 9.133975 13.434013 0
 4.500000 9.133975 13.634018 0
 4.700000 9.133975 13.834024 0
 4.900000 9.133975 14.034019 0
 5.100000 9.133975 14.234024 0
 5.300000 9.133975 14.434023 0
 5.500000 9.133975 14.634021 0
 5.700000 9.133975 14.834021 0
 5.900000 9.133975 15.034018 0
 6.100000 9.133975 15.234016 0
 6.300000 9.133975 15.434009 0
 6.500000 9.133975 15.634013 0
 6.700000 9.133975 15.834005 0
 6.900002 9.133974 16.034004 0
 7.100012 9.133974 16.233999 0
 7.300042 9.133979 16.434040 0
 7.500120 9.134007 16.634136 0
 7.700280 9.134119 16.834408 0
 7.900562 9.134421 17.034994 0
 8.101011 9.135026 17.236063 0
 8.301710 9.135969 17.437704 0
 8.502620 9.137278 17.639919 0
 8.703229 9.138531 17.841766 0
 8.902556 9.137239 18.039810 0
 9.119493 9.113961 18.233467 0
 9.124815 8.898394 18.023216 0
 9.123980 8.697309 17.821312 0
 9.130386 8.496932 17.627340 0
 9.132958 8.298738 17.431715 0
 9.133646 8.099950 17.233610 0
 9.133716 7.900363 17.034086 0
 9.133734 7.700330 16.834076 0
 9.133811 7.500182 16.634005 0
 9.133895 7.300073 16.433983 0
 4.200000 8.960770 13.160812 0
 4.400000 8.960770 13.360817 0
 4.600000 8.960770 13.560811 0
 4.800000 8.960770 13.760820 0
 5.000000 8.960770 13.960823 0
 5.200000 8.960770 14.160818 0
 5.400000 8.960770 14.360816 0
 5.600000 8.960770 14.560813 0
 5.800000 8.960770 14.760817 0
 6.000000 8.960770 14.960814 0
 6.200000 8.960770 15.160817 0
 6.400000 8.960770 15.360803 0
 6.600000 8.960770 15.560800 0
 6.800004 8.960769 15.760798 0
 7.000021 8.960766 15.960811 0
 7.200076 8.960763 16.160860 0
 7.400211 8.960773 16.360994 0
 7.600489 8.960849 16.561356 0
 7.800964 8.961123 16.762106 0
 8.001632 8.961826 16.963467 0
 8.202454 8.963049 17.165524 0
 8.403683 8.964512 17.368221 0
 8.604980 8.967175 17.572182 0
 8.804062 8.971238 17.775318 0
 8.975871 8.984391 17.960278 0
 8.927944 8.800052 17.728004 0
 8.955792 8.590317 17.546129 0
 8.960268 8.396417 17.356710 0
 8.960816 8.199830 17.160666 0
 8.960321 8.001071 16.961411 0
 8.960053 7.801050 16.761116 0
 8.960171 7.600637 16.560820 0
 8.960424 7.400289 16.360716 0
 4.300000 8.787564 13.087611 0
 4.500000 8.787564 13.287616 0
 4.700000 8.787564 13.487619 0
 4.900000 8.787564 13.687622 0
 5.100000 8.787564 13.887618 0
 5.300000 8.787564 14.087613 0
 5.500000 8.787564 14.287614 0
 5.700000 8.787564 14.487616 0
 5.900000 8.787564 14.687607 0
 6.100000 8.787564 14.887610 0
 6.300000 8.787564 15.087600 0
 6.500001 8.787563 15.287598 0
 6.700006 8.787560 15.487597 0
 6.900033 8.787551 15.687610 0
 7.100119 8.787532 15.887672 0
 7.300333 8.787510 16.087862 0
 7.500772 8.787518 16.288303 0
 7.701538 8.787665 16.489222 0
 7.902682 8.788234 16.690935 0
 8.103920 8.789767 16.893705 0
 8.304799 8.791993 17.096819 0
 8.507434 8.792245 17.299706 0
 8.710189 8.799296 17.509518 0
 8.800416 8.657840 17.458273 0
 8.791305 8.492050 17.283377 0
 8.790014 8.299849 17.089893 0
 8.787310 8.102899 16.890221 0
 8.785805 7.902880 16.688698 0
 8.785787 7.701822 16.487617 0
 8.786403 7.500889 16.287310 0
 4.100000 8.787564 12.887604 0
 8.787004 7.300355 16.087379 0
 4.200000 8.614359 12.814406 0
 4.400000 8.614359 13.014410 0
 4.600000 8.614359 13.214413 0
 4.800000 8.614359 13.414419 0
 5.000000 8.614359 13.614417 0
 5.200000 8.614359 13.814419 0
 5.400000 8.614359 14.014414 0
 5.600000 8.614359 14.214409 0
 5.800000 8.614359 14.414407 0
 6.000000 8.614359 14.614405 0
 6.200000 8.614359 14.814395 0
 6.400001 8.614357 15.014390 0
 6.600008 8.614349 15.214388 0
 6.800041 8.614325 15.414394 0
 7.000158 8.614272 15.614461 0
 7.200464 8.614189 15.814673 0
 7.401100 8.614105 16.015215 0
 7.602202 8.614091 16.216318 0
 7.803920 8.614282 16.418219 0
 8.006411 8.615168 16.621593 0
 8.208127 8.619066 16.827219 0
 8.405689 8.624035 17.029743 0
 8.617222 8.606673 17.223928 0
 8.624592 8.400598 17.025215 0
 8.616014 8.207366 16.823397 0
 8.610533 8.007153 16.617710 0
 8.609851 7.804448 16.414312 0
 8.611132 7.602213 16.213364 0
 8.612662 7.400936 16.013622 0
 8.613657 7.200366 15.814034 0
 4.500000 8.441154 12.941208 0
 4.700000 8.441154 13.141208 0
 4.900000 8.441154 13.341210 0
 5.100000 8.441154 13.541218 0
 5.300000 8.441154 13.741215 0
 5.500000 8.441154 13.941214 0
 5.700000 8.441154 14.141204 0
 5.900000 8.441154 14.341200 0
 6.100000 8.441154 14.541200 0
 6.300001 8.441152 14.741191 0
 6.500006 8.441138 14.941179 0
 6.700037 8.441092 15.141168 0
 6.900167 8.440974 15.341168 0
 7.100551 8.440766 15.541344 0
 7.301406 8.440505 15.741929 0
 7.502907 8.440312 15.943235 0
 7.705102 8.440290 16.145422 0
 7.908232 8.440257 16.348516 0
 8.114511 8.439873 16.554407 0
 8.316344 8.454264 16.770630 0
 8.482716 8.480515 16.963253 0
 8.451464 8.317411 16.768892 0
 8.432551 8.117146 16.549706 0
 8.430984 7.909530 16.340528 0
 8.433331 7.704561 16.137905 0
 8.436935 7.501875 15.938822 0
 8.439303 7.300807 15.740129 0
 8.440486 7.100379 15.540885 0
 4.600000 8.267949 12.868009 0
 4.800000 8.267949 13.068013 0
 5.000000 8.267949 13.268014 0
 5.200000 8.267949 13.468014 0
 5.400000 8.267949 13.668008 0
 5.600000 8.267949 13.868010 0
 5.800000 8.267949 14.068006 0
 6.000000 8.267950 14.267996 0
 6.200001 8.267948 14.467996 0
 6.400003 8.267935 14.667971 0
 6.600019 8.267870 14.867923 0
 6.800119 8.267676 15.067828 0
 7.000500 8.267258 15.267787 0
 7.201506 8.266623 15.468151 0
 7.403491 8.265994 15.669504 0
 7.606437 8.265835 15.872290 0
 7.809722 8.266250 16.076002 0
 8.012724 8.265565 16.278313 0
 8.238058 8.245457 16.483536 0
 8.248485 8.017168 16.265675 0
 8.250033 7.808044 16.058094 0
 8.259111 7.602485 15.861610 0
 8.264059 7.401207 15.665286 0
 8.266472 7.200780 15.467275 0
 8.440960 6.900178 15.341158 0
 8.267476 7.000492 15.267994 0
 8.267821 6.800259 15.068102 0
 4.700000 8.094744 12.794807 0
 4.900000 8.094744 12.994809 0
 5.100000 8.094744 13.194807 0
 5.300000 8.094744 13.394810 0
 5.500000 8.094744 13.594810 0
 5.700000 8.094745 13.794804 0
 5.900001 8.094746 13.994806 0
 6.100003 8.094748 14.194798 0
 6.300003 8.094746 14.394790 0
 6.499997 8.094692 14.594729 0
 6.700018 8.094465 14.794523 0
 6.900240 8.093843 14.994119 0
 7.101136 8.092621 15.193783 0
 7.303385 8.091028 15.394440 0
 7.507507 8.089787 15.597318 0
 7.712632 8.090658 15.803311 0
 7.916001 8.093883 16.009897 0
 8.092253 8.107602 16.199871 0
 8.047065 7.915984 15.963059 0
 8.079967 7.699140 15.779124 0
 8.088432 7.500603 15.589058 0
 8.092319 7.301176 15.393515 0
 8.093918 7.101106 15.195048 0
 8.094476 6.900727 14.995225 0
 8.094647 6.700355 14.795034 0
 4.800000 7.921539 12.721603 0
 5.000000 7.921539 12.921607 0
 5.200000 7.921539 13.121607 0
 5.400000 7.921539 13.321605 0
 5.600000 7.921539 13.521605 0
 5.800000 7.921542 13.721602 0
 6.000003 7.921551 13.921611 0
 6.200006 7.921570 14.121622 0
 6.399990 7.921570 14.321605 0
 6.599923 7.921422 14.521383 0
 6.799852 7.920802 14.720691 0
 7.000161 7.919147 14.919340 0
 7.201972 7.915965 15.117967 0
 7.406426 7.912672 15.319118 0
 7.615009 7.909873 15.524903 0
 7.823510 7.916173 15.739700 0
 7.919465 7.769210 15.688690 0
 7.914666 7.598018 15.512703 0
 7.919014 7.401294 15.320326 0
 7.920671 7.202161 15.122855 0
 7.921124 7.001723 14.922871 0
 7.921262 6.800952 14.722239 0
 7.921363 6.600379 14.521774 0
 5.300000 7.748334 13.048398 0
 5.500000 7.748334 13.248403 0
 5.699999 7.748337 13.448395 0
 5.900002 7.748352 13.648411 0
 6.100009 7.748398 13.848460 0
 6.300004 7.748482 14.048532 0
 6.499908 7.748530 14.248477 0
 6.699587 7.748238 14.447861 0
 6.899025 7.746879 14.645938 0
 7.098901 7.743095 14.842031 0
 7.302651 7.734631 15.037310 0
 7.509539 7.731553 15.241116 0
 7.732167 7.715353 15.447539 0
 7.748335 7.501046 15.249404 0
 7.748656 7.303959 15.052635 0
 7.747915 7.103678 14.851616 0
 7.747567 6.902187 14.649773 0
 7.747691 6.700889 14.448609 0
 7.747958 6.500210 14.248202 0
 5.599999 7.575131 13.175190 0
 5.800000 7.575148 13.375208 0
 6.000010 7.575214 13.575275 0
 6.200029 7.575380 13.775454 0
 6.399985 7.575666 13.975687 0
 6.599641 7.575929 14.175609 0
 6.798581 7.575597 14.374213 0
 6.996397 7.573352 14.569780 0
 7.192815 7.566543 14.759381 0
 7.406449 7.535078 14.941550 0
 7.595268 7.578503 15.173788 0
 7.579806 7.407219 14.987044 0
 7.575139 7.207515 14.782672 0
 7.573007 7.004591 14.577621 0
 7.573136 6.801752 14.374918 0
 7.573880 6.600250 14.174158 0
 7.748168 6.299989 14.048192 0
 7.574561 6.399793 13.974388 0
 7.574910 6.199821 13.774763 0
 5.900026 7.402008 13.302084 0
 6.100066 7.402225 13.502338 0
 6.300113 7.402696 13.702854 0
 6.499981 7.403486 13.903502 0
 6.699100 7.404406 14.103543 0
 6.896491 7.404594 14.301119 0
 7.091061 7.402380 14.493473 0
 7.260177 7.408800 14.669003 0
 7.404015 7.315458 14.719497 0
 7.395728 7.109600 14.505361 0
 7.396633 6.902971 14.299631 0
 7.398360 6.699879 14.098270 0
 7.400393 6.499015 13.899446 0
 7.401360 6.299318 13.700717 0
 7.401683 6.099736 13.501456 0
 6.200305 7.229566 13.429916 0
 6.400444 7.230638 13.631123 0
 6.600226 7.232457 13.832723 0
 6.798473 7.234999 14.033508 0
 6.993329 7.236845 14.230209 0
 7.204820 7.223364 14.428213 0
 7.218233 7.003456 14.221722 0
 7.218993 6.798610 14.017636 0
 7.225412 6.596582 13.822032 0
 7.227750 6.397942 13.625731 0
 7.228303 6.199261 13.427601 0
 7.228359 5.999932 13.228328 0
 7.401784 5.899960 13.301785 0
 7.401840 5.700023 13.101904 0
 7.228419 5.800118 13.028575 0
 7.228533 5.600099 12.828675 0
 6.301001 7.057511 13.358549 0
 6.501451 7.059349 13.560843 0
 6.701508 7.063075 13.764619 0
 6.898578 7.069412 13.968029 0
 7.067957 7.086519 14.154515 0
 7.022577 6.899694 13.922304 0
 7.050794 6.688996 13.739824 0
 7.055077 6.494744 13.549855 0
 7.055428 6.298376 13.353836 0
 7.054894 6.100076 13.155005 0
 7.054683 5.900492 12.955207 0
 7.054866 5.700380 12.755273 0
 6.100739 7.056276 13.157060 0
 6.202217 6.884153 13.086412 0
 6.402333 6.886526 13.288897 0
 6.604114 6.887469 13.491623 0
 6.805897 6.896061 13.701995 0
 6.895675 6.755200 13.650912 0
 6.502120 6.718897 13.221054 0
 6.712865 6.702562 13.415464 0
 1 2 3 
 3 4 5 
 5 6 7 
 7 8 9 
 10 9 11 
 12 13 10 
 14 15 13 
 16 17 15 
 18 19 17 
 20 21 19 
 22 23 21 
 24 25 23 
 26 27 25 
 28 29 27 
 30 31 29 
 32 33 31 
 34 35 33 
 36 37 35 
 38 39 37 
 40 41 39 
 42 43 41 
 44 45 43 
 46 47 45 
 48 49 47 
 50 51 49 
 52 53 51 
 54 55 53 
 56 57 55 
 57 58 59 
 58 60 59 
 61 62 60 
 62 63 64 
 64 65 66 
 66 67 68 
 68 69 70 
 70 71 72 
 72 73 74 
 74 75 76 
 76 77 78 
 78 79 80 
 80 81 82 
 82 83 84 
 84 85 86 
 86 87 88 
 89 2 1 
 2 4 3 
 4 6 5 
 6 8 7 
 8 11 9 
 11 12 10 
 12 14 13 
 14 16 15 
 16 18 17 
 18 20 19 
 20 22 21 
 22 24 23 
 24 26 25 
 26 28 27 
 28 30 29 
 30 32 31 
 32 34 33 
 34 36 35 
 36 38 37 
 38 40 39 
 40 42 41 
 42 44 43 
 44 46 45 
 46 48 47 
 48 50 49 
 50 52 51 
 52 54 53 
 54 56 55 
 57 56 58 
 58 61 60 
 63 62 61 
 63 65 64 
 65 67 66 
 67 69 68 
 69 71 70 
 71 73 72 
 73 75 74 
 75 77 76 
 77 79 78 
 79 81 80 
 81 83 82 
 83 85 84 
 85 87 86 
 89 90 2 
 2 91 4 
 4 92 6 
 6 93 8 
 8 94 11 
 12 11 95 
 14 12 96 
 16 14 97 
 18 16 98 
 20 18 99 
 22 20 100 
 24 22 101 
 26 24 102 
 28 26 103 
 30 28 104 
 32 30 105 
 34 32 106 
 36 34 107 
 38 36 108 
 40 38 109 
 42 40 110 
 44 42 111 
 46 44 112 
 48 46 113 
 50 48 114 
 52 50 115 
 54 52 116 
 54 117 56 
 61 58 56 
 63 61 117 
 63 118 65 
 65 119 67 
 67 120 69 
 69 121 71 
 71 122 73 
 123 75 73 
 75 124 77 
 77 125 79 
 79 126 81 
 81 127 83 
 83 128 85 
 85 129 87 
 130 90 89 
 90 91 2 
 91 92 4 
 92 93 6 
 93 94 8 
 94 95 11 
 96 12 95 
 97 14 96 
 98 16 97 
 99 18 98 
 100 20 99 
 101 22 100 
 102 24 101 
 103 26 102 
 104 28 103 
 105 30 104 
 106 32 105 
 107 34 106 
 108 36 107 
 109 38 108 
 110 40 109 
 111 42 110 
 112 44 111 
 113 46 112 
 114 48 113 
 115 50 114 
 116 52 115 
 54 116 117 
 117 61 56 
 63 117 118 
 118 119 65 
 119 120 67 
 120 121 69 
 121 122 71 
 122 123 73 
 124 75 123 
 124 125 77 
 125 126 79 
 126 127 81 
 127 128 83 
 128 129 85 
 130 131 90 
 90 132 91 
 91 133 92 
 92 134 93 
 93 135 94 
 95 94 136 
 96 95 137 
 97 96 138 
 139 98 97 
 99 98 140 
 100 99 141 
 101 100 142 
 102 101 143 
 103 102 144 
 104 103 145 
 105 104 146 
 106 105 147 
 107 106 148 
 108 107 149 
 108 150 109 
 110 109 151 
 111 110 152 
 112 111 153 
 113 112 154 
 114 113 155 
 156 115 114 
 116 115 157 
 158 117 116 
 118 117 158 
 118 159 119 
 119 160 120 
 120 161 121 
 121 162 122 
 122 163 123 
 123 164 124 
 124 165 125 
 166 126 125 
 126 167 127 
 127 168 128 
 128 169 129 
 170 131 130 
 131 132 90 
 132 133 91 
 133 134 92 
 134 135 93 
 135 136 94 
 95 136 137 
 138 96 137 
 138 139 97 
 140 98 139 
 141 99 140 
 142 100 141 
 143 101 142 
 144 102 143 
 145 103 144 
 146 104 145 
 147 105 146 
 148 106 147 
 149 107 148 
 108 149 150 
 151 109 150 
 152 110 151 
 153 111 152 
 154 112 153 
 155 113 154 
 155 156 114 
 157 115 156 
 158 116 157 
 118 158 159 
 159 160 119 
 160 161 120 
 161 162 121 
 162 163 122 
 163 164 123 
 164 165 124 
 165 166 125 
 167 126 166 
 167 168 127 
 168 169 128 
 169 171 129 
 170 172 131 
 173 132 131 
 132 174 133 
 133 175 134 
 134 176 135 
 135 177 136 
 137 136 178 
 138 137 179 
 180 139 138 
 140 139 181 
 141 140 182 
 142 141 183 
 143 142 184 
 144 143 185 
 145 144 186 
 146 145 187 
 147 146 188 
 148 147 189 
 149 148 190 
 150 149 191 
 151 150 192 
 152 151 193 
 153 152 194 
 154 153 195 
 155 154 196 
 156 155 197 
 198 157 156 
 159 158 157 
 159 199 160 
 160 200 161 
 201 162 161 
 162 202 163 
 163 203 164 
 164 204 165 
 205 166 165 
 166 206 167 
 167 207 168 
 208 169 168 
 169 209 171 
 172 173 131 
 174 132 173 
 174 175 133 
 175 176 134 
 176 177 135 
 177 178 136 
 137 178 179 
 179 180 138 
 181 139 180 
 182 140 181 
 183 141 182 
 184 142 183 
 185 143 184 
 186 144 185 
 187 145 186 
 188 146 187 
 189 147 188 
 190 148 189 
 191 149 190 
 192 150 191 
 193 151 192 
 194 152 193 
 195 153 194 
 196 154 195 
 197 155 196 
 197 198 156 
 159 157 198 
 199 200 160 
 159 198 199 
 200 201 161 
 202 162 201 
 202 203 163 
 203 204 164 
 204 205 165 
 206 166 205 
 206 207 167 
 207 208 168 
 209 169 208 
 172 210 173 
 173 211 174 
 174 212 175 
 175 213 176 
 176 214 177 
 215 178 177 
 216 179 178 
 217 180 179 
 218 181 180 
 182 181 219 
 183 182 220 
 184 183 221 
 185 184 222 
 185 223 186 
 187 186 224 
 188 187 225 
 189 188 226 
 190 189 227 
 191 190 228 
 192 191 229 
 193 192 230 
 194 193 231 
 194 232 195 
 195 233 196 
 197 196 234 
 198 197 235 
 235 200 199 
 198 235 199 
 200 236 201 
 237 202 201 
 238 203 202 
 203 239 204 
 204 240 205 
 205 241 206 
 206 242 207 
 243 208 207 
 208 244 209 
 210 211 173 
 211 212 174 
 212 213 175 
 213 214 176 
 214 215 177 
 216 178 215 
 217 179 216 
 217 218 180 
 219 181 218 
 220 182 219 
 221 183 220 
 222 184 221 
 185 222 223 
 224 186 223 
 225 187 224 
 226 188 225 
 227 189 226 
 228 190 227 
 229 191 228 
 230 192 229 
 231 193 230 
 194 231 232 
 195 232 233 
 234 196 233 
 235 197 234 
 236 200 235 
 236 237 201 
 238 202 237 
 239 203 238 
 239 240 204 
 240 241 205 
 241 242 206 
 242 243 207 
 244 208 243 
 210 245 211 
 246 212 211 
 247 213 212 
 213 248 214 
 249 215 214 
 215 250 216 
 216 251 217 
 218 217 252 
 219 218 253 
 219 254 220 
 220 255 221 
 222 221 256 
 223 222 257 
 224 223 258 
 225 224 259 
 226 225 260 
 261 227 226 
 262 228 227 
 229 228 263 
 230 229 264 
 230 265 231 
 231 266 232 
 232 267 233 
 234 233 268 
 235 234 269 
 235 269 236 
 236 270 237 
 271 238 237 
 239 238 272 
 273 240 239 
 240 274 241 
 241 275 242 
 242 276 243 
 244 243 277 
 245 246 211 
 247 212 246 
 248 213 247 
 248 249 214 
 250 215 249 
 250 251 216 
 251 252 217 
 253 218 252 
 219 253 254 
 220 254 255 
 256 221 255 
 257 222 256 
 258 223 257 
 259 224 258 
 260 225 259 
 260 261 226 
 261 262 227 
 263 228 262 
 264 229 263 
 230 264 265 
 231 265 266 
 232 266 267 
 268 233 267 
 269 234 268 
 236 269 270 
 270 271 237 
 272 238 271 
 239 272 273 
 274 240 273 
 274 275 241 
 275 276 242 
 276 277 243 
 245 278 246 
 279 247 246 
 280 248 247 
 281 249 248 
 282 250 249 
 251 250 283 
 252 251 284 
 253 252 285 
 254 253 286 
 255 254 287 
 255 288 256 
 257 256 289 
 258 257 290 
 291 259 258 
 292 260 259 
 261 260 293 
 262 261 294 
 295 263 262 
 263 296 264 
 297 265 264 
 265 298 266 
 266 299 267 
 268 267 300 
 270 269 268 
 270 301 271 
 302 272 271 
 303 273 272 
 274 273 304 
 305 275 274 
 275 306 276 
 307 277 276 
 308 278 245 
 278 279 246 
 280 247 279 
 281 248 280 
 282 249 281 
 283 250 282 
 251 283 284 
 252 284 285 
 286 253 285 
 287 254 286 
 255 287 288 
 289 256 288 
 290 257 289 
 290 291 258 
 291 292 259 
 293 260 292 
 294 261 293 
 294 295 262 
 263 295 296 
 296 297 264 
 265 297 298 
 266 298 299 
 300 267 299 
 270 268 300 
 301 302 271 
 270 300 301 
 303 272 302 
 304 273 303 
 274 304 305 
 306 275 305 
 306 307 276 
 309 277 307 
 310 278 308 
 311 279 278 
 279 312 280 
 280 313 281 
 281 314 282 
 315 283 282 
 283 316 284 
 284 317 285 
 285 318 286 
 287 286 319 
 320 288 287 
 321 289 288 
 322 290 289 
 323 291 290 
 291 324 292 
 293 292 325 
 294 293 326 
 294 327 295 
 295 328 296 
 296 329 297 
 297 330 298 
 298 331 299 
 300 299 332 
 332 302 301 
 300 332 301 
 333 303 302 
 334 304 303 
 335 305 304 
 306 305 336 
 337 307 306 
 307 338 309 
 311 278 310 
 312 279 311 
 312 313 280 
 313 314 281 
 314 315 282 
 316 283 315 
 316 317 284 
 317 318 285 
 319 286 318 
 319 320 287 
 320 321 288 
 321 322 289 
 322 323 290 
 291 323 324 
 325 292 324 
 326 293 325 
 294 326 327 
 295 327 328 
 296 328 329 
 297 329 330 
 298 330 331 
 332 299 331 
 333 302 332 
 334 303 333 
 335 304 334 
 336 305 335 
 306 336 337 
 338 307 337 
 338 339 309 
 311 340 312 
 312 341 313 
 342 314 313 
 314 343 315 
 315 344 316 
 345 317 316 
 346 318 317 
 319 318 347 
 320 319 348 
 321 320 349 
 321 350 322 
 351 323 322 
 324 323 352 
 324 353 325 
 325 354 326 
 355 327 326 
 327 356 328 
 329 328 357 
 329 358 330 
 330 359 331 
 331 360 332 
 360 333 332 
 361 334 333 
 362 335 334 
 336 335 363 
 364 337 336 
 338 337 365 
 366 339 338 
 340 341 312 
 341 342 313 
 343 314 342 
 343 344 315 
 344 345 316 
 346 317 345 
 347 318 346 
 348 319 347 
 349 320 348 
 321 349 350 
 350 351 322 
 352 323 351 
 324 352 353 
 325 353 354 
 354 355 326 
 327 355 356 
 357 328 356 
 329 357 358 
 330 358 359 
 331 359 360 
 360 361 333 
 362 334 361 
 363 335 362 
 336 363 364 
 365 337 364 
 338 365 366 
 367 339 366 
 341 340 368 
 341 369 342 
 343 342 370 
 344 343 371 
 345 344 372 
 346 345 373 
 347 346 374 
 375 348 347 
 376 349 348 
 350 349 377 
 351 350 378 
 351 379 352 
 380 353 352 
 381 354 353 
 354 382 355 
 383 356 355 
 356 384 357 
 357 385 358 
 358 386 359 
 360 359 361 
 386 362 361 
 363 362 387 
 388 364 363 
 365 364 389 
 390 366 365 
 367 366 391 
 392 367 393 
 341 368 369 
 369 370 342 
 343 370 371 
 344 371 372 
 345 372 373 
 346 373 374 
 347 374 375 
 375 376 348 
 377 349 376 
 378 350 377 
 351 378 379 
 379 380 352 
 380 381 353 
 354 381 382 
 382 383 355 
 356 383 384 
 357 384 385 
 358 385 386 
 386 361 359 
 387 362 386 
 363 387 388 
 389 364 388 
 365 389 390 
 391 366 390 
 367 391 393 
 392 393 394 
 395 369 368 
 396 370 369 
 370 397 371 
 371 398 372 
 372 399 373 
 400 374 373 
 401 375 374 
 375 402 376 
 377 376 403 
 404 378 377 
 405 379 378 
 379 406 380 
 380 407 381 
 408 382 381 
 382 409 383 
 383 410 384 
 384 411 385 
 385 412 386 
 412 387 386 
 413 388 387 
 414 389 388 
 415 390 389 
 391 390 416 
 417 393 391 
 394 393 418 
 396 369 395 
 397 370 396 
 397 398 371 
 398 399 372 
 399 400 373 
 401 374 400 
 402 375 401 
 403 376 402 
 403 404 377 
 404 405 378 
 379 405 406 
 380 406 407 
 407 408 381 
 382 408 409 
 383 409 410 
 384 410 411 
 411 412 385 
 412 413 387 
 414 388 413 
 415 389 414 
 416 390 415 
 391 416 417 
 418 393 417 
 394 418 419 
 420 396 395 
 396 421 397 
 397 422 398 
 399 398 423 
 400 399 424 
 401 400 425 
 401 426 402 
 427 403 402 
 403 428 404 
 404 429 405 
 405 430 406 
 406 431 407 
 407 432 408 
 409 408 433 
 409 434 410 
 410 435 411 
 411 413 412 
 436 414 413 
 437 415 414 
 416 415 438 
 439 417 416 
 418 417 440 
 441 419 418 
 421 396 420 
 421 422 397 
 422 423 398 
 399 423 424 
 400 424 425 
 401 425 426 
 426 427 402 
 403 427 428 
 404 428 429 
 405 429 430 
 406 430 431 
 407 431 432 
 433 408 432 
 409 433 434 
 410 434 435 
 435 413 411 
 435 436 413 
 437 414 436 
 438 415 437 
 416 438 439 
 440 417 439 
 418 440 441 
 442 419 441 
 422 443 423 
 423 444 424 
 424 445 425 
 426 425 446 
 426 447 427 
 427 448 428 
 428 449 429 
 429 450 430 
 430 451 431 
 431 452 432 
 453 433 432 
 434 433 454 
 434 455 435 
 455 436 435 
 455 437 436 
 456 438 437 
 439 438 457 
 440 439 458 
 459 441 440 
 442 441 460 
 443 444 423 
 444 445 424 
 445 446 425 
 426 446 447 
 447 448 427 
 428 448 449 
 429 449 450 
 430 450 451 
 431 451 452 
 452 453 432 
 454 433 453 
 434 454 455 
 456 437 455 
 457 438 456 
 439 457 458 
 440 458 459 
 460 441 459 
 442 460 461 
 444 462 445 
 445 463 446 
 446 464 447 
 447 465 448 
 448 466 449 
 449 467 450 
 450 468 451 
 469 452 451 
 470 453 452 
 453 471 454 
 454 472 455 
 472 456 455 
 473 457 456 
 457 474 458 
 459 458 475 
 460 459 476 
 461 460 477 
 478 461 479 
 462 463 445 
 463 464 446 
 464 465 447 
 465 466 448 
 449 466 467 
 450 467 468 
 468 469 451 
 469 470 452 
 453 470 471 
 471 472 454 
 473 456 472 
 474 457 473 
 474 475 458 
 459 475 476 
 460 476 477 
 461 477 479 
 480 478 479 
 464 463 481 
 464 482 465 
 465 483 466 
 484 467 466 
 485 468 467 
 486 469 468 
 487 470 469 
 470 488 471 
 473 472 471 
 474 473 489 
 475 474 490 
 491 476 475 
 476 492 477 
 479 477 493 
 480 479 494 
 464 481 482 
 482 483 465 
 483 484 466 
 484 485 467 
 485 486 468 
 486 487 469 
 470 487 488 
 488 489 471 
 489 473 471 
 474 489 490 
 475 490 491 
 492 476 491 
 492 493 477 
 494 479 493 
 494 495 480 
 482 496 483 
 484 483 497 
 485 484 498 
 486 485 499 
 500 487 486 
 501 488 487 
 489 488 501 
 490 489 501 
 491 490 502 
 503 492 491 
 492 504 493 
 505 494 493 
 495 494 506 
 507 508 495 
 509 508 510 
 496 497 483 
 484 497 498 
 499 485 498 
 499 500 486 
 500 501 487 
 490 501 502 
 491 502 503 
 504 492 503 
 504 505 493 
 506 494 505 
 506 507 495 
 510 508 507 
 509 510 511 
 496 512 497 
 497 513 498 
 499 498 514 
 499 515 500 
 516 501 500 
 502 501 516 
 503 502 517 
 503 518 504 
 505 504 519 
 506 505 520 
 506 521 507 
 507 522 510 
 523 511 510 
 496 524 512 
 512 513 497 
 513 514 498 
 499 514 515 
 515 516 500 
 517 502 516 
 503 517 518 
 519 504 518 
 520 505 519 
 506 520 521 
 507 521 522 
 522 523 510 
 524 525 512 
 526 513 512 
 513 527 514 
 514 528 515 
 515 517 516 
 529 518 517 
 525 526 512 
 527 513 526 
 527 528 514 
 528 517 515 
 528 529 517 
 526 530 527 
 531 528 527 
 529 528 531 
 530 531 527 
