TITLE      =  "2D FE Unstructured grid data" 
VARIABLES = "X", "Y", "U", "Dom" 
ZONE T="P1", F=FEPOINT, N= 339 E= 605  ET=TRIANGLE 
 2.317473 7.078120 9.395683 3
 2.417764 7.184912 9.602759 3
 2.250142 7.195615 9.445839 3
 2.313748 7.309247 9.623079 3
 3.313665 6.154677 9.468422 3
 3.173663 6.202900 9.376636 3
 3.153175 6.102249 9.255496 3
 2.457381 7.696479 10.153941 3
 2.330687 7.682017 10.012789 3
 2.433056 7.563674 9.996819 3
 2.395749 6.336443 8.732271 3
 2.472568 6.425853 8.898503 3
 2.316118 6.431808 8.748000 3
 2.381827 6.524349 8.906260 3
 2.534269 7.374473 9.908827 3
 2.443488 7.311311 9.754883 3
 2.579876 7.256678 9.836646 3
 3.642383 7.890832 11.533291 3
 3.511250 7.910295 11.421616 3
 3.556786 7.772664 11.329527 3
 3.421979 7.817657 11.239719 3
 2.282214 7.583952 9.866242 3
 2.815677 6.244118 9.059872 3
 2.974875 6.266385 9.241340 3
 2.871979 6.348311 9.220366 3
 2.938483 6.124635 9.063189 3
 2.203551 6.985586 9.189226 3
 2.338772 6.935942 9.274803 3
 2.464019 7.022563 9.486668 3
 3.720820 6.912322 10.633228 3
 3.724187 6.781441 10.505704 3
 3.827966 6.839842 10.667876 3
 2.305840 7.476904 9.782825 3
 2.615458 6.362182 8.977719 3
 2.774981 6.409706 9.184768 3
 2.621361 6.497158 9.118601 3
 1.786778 7.275660 9.062504 3
 1.840102 7.137749 8.977922 3
 1.913435 7.227174 9.140684 3
 3.623137 6.846333 10.469551 3
 2.088911 6.516935 8.605916 3
 2.178055 6.622899 8.801029 3
 2.038125 6.684228 8.722425 3
 3.711240 7.702978 11.414292 3
 3.753700 7.593210 11.346989 3
 3.852340 7.744352 11.596766 3
 3.880420 7.593835 11.474330 3
 3.099504 7.861408 10.960996 3
 3.087139 7.754130 10.841353 3
 3.246407 7.816896 11.063385 3
 4.209164 6.676344 10.885571 3
 4.083702 6.608777 10.692548 3
 4.210244 6.520789 10.731091 3
 4.047033 6.461767 10.508862 3
 2.418204 7.433827 9.852115 3
 2.583979 7.497101 10.081174 3
 2.759440 7.514537 10.274071 3
 2.666480 7.624243 10.290815 3
 1.674321 7.205916 8.880301 3
 3.167779 7.683233 10.851096 3
 2.824404 7.342330 10.166824 3
 2.669007 7.374741 10.043835 3
 4.176283 7.510770 11.687113 3
 4.021476 7.534031 11.555572 3
 4.107207 7.367772 11.475042 3
 3.968200 7.421478 11.389758 3
 2.908478 7.476202 10.384768 3
 3.481136 6.425205 9.906421 3
 3.598216 6.522669 10.120953 3
 3.456605 6.579809 10.036497 3
 3.615132 6.728545 10.343752 3
 4.007149 7.706590 11.713808 3
 3.301613 6.552069 9.853763 3
 3.350997 6.695115 10.046201 3
 3.245531 7.230278 10.475902 3
 3.155838 7.313945 10.469880 3
 3.091022 7.181091 10.272207 3
 1.954613 6.582535 8.537220 3
 3.131414 6.406967 9.538459 3
 2.996739 6.405838 9.402656 3
 3.095015 6.292739 9.387831 3
 2.952770 7.357646 10.310510 3
 3.067519 7.422348 10.489956 3
 2.210943 7.419106 9.630131 3
 3.030931 7.537596 10.568615 3
 3.045278 7.292064 10.337434 3
 3.892871 7.484823 11.377770 3
 4.374683 7.131568 11.506301 3
 4.237511 7.038578 11.276152 3
 4.349758 7.017886 11.367702 3
 4.218152 7.147321 11.365533 3
 3.199978 6.629252 9.829313 3
 2.799217 7.693826 10.493132 3
 2.923133 7.614957 10.538175 3
 3.777973 6.416477 10.194525 3
 3.922608 6.355734 10.278401 3
 3.912579 6.474751 10.387395 3
 1.590732 7.730081 9.320873 3
 1.716652 7.782197 9.498915 3
 1.610746 7.862753 9.473562 3
 4.145229 7.234875 11.380165 3
 4.059261 7.122772 11.182097 3
 2.808614 7.168708 9.977411 3
 2.942381 7.236932 10.179403 3
 1.904055 7.879086 9.783209 3
 1.837587 7.992599 9.830256 3
 1.796929 7.883687 9.680688 3
 3.369663 6.458298 9.828040 3
 2.740520 6.528897 9.269502 3
 1.961229 7.996693 9.957994 3
 2.149197 6.750058 8.899341 3
 3.510660 7.636990 11.147731 3
 3.447775 7.505364 10.953225 3
 3.627092 7.551364 11.178534 3
 3.559541 7.424548 10.984178 3
 1.687510 7.652841 9.340416 3
 3.351527 6.339208 9.690813 3
 3.222589 6.303521 9.526182 3
 3.063891 7.641549 10.705527 3
 2.944302 7.070577 10.014970 3
 2.884941 6.941597 9.826633 3
 3.017774 6.951748 9.969618 3
 2.956478 6.808999 9.765562 3
 2.991874 7.710558 10.702516 3
 1.630993 7.365955 8.997012 3
 2.521891 6.696742 9.218723 3
 2.417243 6.654553 9.071877 3
 2.566158 6.600378 9.166620 3
 2.477557 6.542108 9.019753 3
 4.121198 7.040025 11.161288 3
 3.572550 6.630432 10.203061 3
 3.721129 6.618779 10.339986 3
 3.720242 7.024384 10.744705 3
 3.818640 6.978978 10.797689 3
 3.808242 7.139900 10.948221 3
 3.224849 6.748847 9.973776 3
 2.688408 6.845854 9.534354 3
 2.552580 6.887485 9.440155 3
 2.618056 6.741405 9.359557 3
 1.908202 7.358087 9.266360 3
 2.862174 6.578849 9.441111 3
 2.968595 6.656877 9.625559 3
 2.851676 6.706321 9.558084 3
 3.758244 7.836802 11.595117 3
 2.035455 7.380548 9.416078 3
 2.150744 7.318586 9.469413 3
 2.112930 7.459446 9.572455 3
 2.586080 7.112348 9.698518 3
 3.481774 7.339940 10.821805 3
 3.377903 7.389180 10.767169 3
 2.079071 7.912491 9.991635 3
 2.120774 7.803924 9.924770 3
 2.198971 7.963866 10.162915 3
 2.261610 7.806186 10.067876 3
 2.006415 7.842937 9.849423 3
 1.390459 7.691524 9.082034 3
 1.501852 7.678027 9.179940 3
 1.500886 7.797293 9.298239 3
 3.910329 7.913257 11.823653 3
 3.277380 6.882189 10.159652 3
 3.118363 6.849500 9.967954 3
 3.163727 6.971000 10.134813 3
 2.020253 7.267929 9.288259 3
 2.363943 6.802744 9.166777 3
 2.245891 6.841384 9.087355 3
 2.437755 6.885254 9.323102 3
 3.919438 7.045442 10.964952 3
 3.219912 7.099728 10.319728 3
 3.621964 6.380307 10.002344 3
 1.944062 6.806640 8.750778 3
 2.054027 6.924795 8.978901 3
 1.886681 6.919601 8.806359 3
 1.946103 7.028942 8.975118 3
 4.045402 7.234003 11.279479 3
 2.574666 7.007318 9.582073 3
 3.764626 7.978360 11.743053 3
 2.126284 8.081773 10.208134 3
 2.057845 8.012397 10.070318 3
 2.556417 7.605742 10.162242 3
 2.440898 7.840679 10.281659 3
 2.551204 7.791159 10.342443 3
 2.592933 7.696841 10.289860 3
 2.651590 6.943803 9.595487 3
 3.081839 7.047856 10.129785 3
 2.493084 6.794065 9.287230 3
 3.838081 6.567790 10.405942 3
 3.384366 7.927693 11.312140 3
 4.142662 7.770654 11.913388 3
 4.062350 7.835704 11.898114 3
 3.052152 6.061598 9.113825 3
 3.064560 6.175085 9.239725 3
 1.751417 7.973350 9.724833 3
 2.660093 7.848749 10.508924 3
 2.792672 7.848142 10.640892 3
 2.686939 7.956045 10.643063 3
 2.515239 6.158843 8.674154 3
 2.660096 6.213124 8.873296 3
 2.510188 6.287699 8.797963 3
 3.603015 8.014289 11.617373 3
 4.106899 8.169879 12.276837 3
 3.963344 8.167383 12.130781 3
 4.026791 8.054142 12.080997 3
 2.078767 7.666364 9.745202 3
 2.034003 7.560336 9.594417 3
 2.176873 7.551620 9.728574 3
 1.860916 8.142054 10.003038 3
 2.010645 8.122132 10.132847 3
 4.252996 7.294376 11.547427 3
 4.354853 7.244166 11.599073 3
 3.538919 6.806466 10.345474 3
 3.826000 6.707777 10.533851 3
 3.064626 6.488285 9.552993 3
 2.142537 6.862159 9.004776 3
 2.076327 7.058541 9.134948 3
 3.349836 7.708594 11.058512 3
 2.190225 7.101747 9.292054 3
 2.811126 6.830569 9.641783 3
 3.263058 7.656786 10.919928 3
 3.969505 6.572711 10.542284 3
 1.463472 7.365602 8.829136 3
 1.532278 7.479693 9.012033 3
 3.953669 7.810437 11.764170 3
 3.668547 7.791031 11.459653 3
 1.973966 7.465500 9.439538 3
 3.755050 7.484173 11.239305 3
 3.678781 7.358489 11.037354 3
 3.839210 7.390600 11.229891 3
 3.572624 7.136677 10.709385 3
 3.620426 6.995499 10.616007 3
 3.674249 7.116525 10.790856 3
 2.060019 6.808969 8.869065 3
 3.512885 7.022688 10.535653 3
 4.031507 7.932813 11.964383 3
 2.717383 6.311791 9.029252 3
 2.796990 6.126307 8.923369 3
 3.924407 6.778689 10.703167 3
 3.918741 6.904608 10.823416 3
 2.359423 7.771815 10.131319 3
 3.706648 6.508783 10.215506 3
 2.772497 6.631569 9.404151 3
 1.675653 7.515348 9.191068 3
 1.761743 7.409687 9.171499 3
 1.793636 7.572269 9.365974 3
 1.862727 7.473275 9.336070 3
 2.209255 7.681920 9.891254 3
 4.231218 7.410373 11.641646 3
 2.269654 6.706133 8.975870 3
 4.282556 6.957081 11.239694 3
 4.143545 6.940578 11.084189 3
 4.203537 6.832942 11.036544 3
 3.090335 6.712043 9.802463 3
 1.396366 7.460019 8.856446 3
 1.334587 7.310613 8.645253 3
 1.976478 7.746914 9.723467 3
 2.709536 7.054564 9.764194 3
 2.821318 7.035058 9.856468 3
 4.102388 6.731255 10.833714 3
 4.042965 6.835967 10.878996 3
 3.919992 8.025494 11.945549 3
 3.914390 6.657681 10.572144 3
 3.414002 6.824035 10.238117 3
 3.397062 6.972573 10.369723 3
 2.686038 7.749208 10.435329 3
 3.578867 7.278636 10.857590 3
 4.347909 7.403681 11.751637 3
 2.181320 6.395429 8.576824 3
 2.208205 6.496840 8.705126 3
 2.723051 7.266156 9.989301 3
 2.282090 6.289904 8.572072 3
 3.770442 7.300319 11.070840 3
 2.974607 6.528362 9.503052 3
 1.451279 7.567094 9.018432 3
 3.704860 7.213806 10.918747 3
 3.874635 7.269837 11.144550 3
 2.684746 7.162374 9.847217 3
 3.823353 8.107009 11.930425 3
 4.141549 7.641022 11.782635 3
 2.870167 6.466660 9.336901 3
 3.971478 7.312364 11.283916 3
 3.182489 7.548820 10.731399 3
 3.205936 7.420095 10.626117 3
 4.476462 7.048297 11.524800 3
 4.404589 6.915154 11.319797 3
 1.326424 7.547935 8.874415 3
 1.977435 7.641033 9.618541 3
 3.440204 7.103339 10.543630 3
 3.340920 7.072015 10.413026 3
 2.411268 6.239966 8.651312 3
 3.943378 7.179153 11.122602 3
 4.309435 6.850822 11.160319 3
 3.603919 7.676636 11.280630 3
 2.676126 6.621308 9.297518 3
 3.305654 7.465668 10.771409 3
 4.001836 6.698579 10.700480 3
 2.110897 7.181079 9.292058 3
 4.286083 6.765038 11.051178 3
 1.996131 7.145063 9.141270 3
 3.350084 7.183947 10.534127 3
 3.075473 6.590240 9.665793 3
 2.336846 7.907362 10.244282 3
 1.575904 7.604143 9.180111 3
 2.275002 6.571133 8.846209 3
 4.022027 6.978586 11.000682 3
 3.320114 7.573364 10.893571 3
 1.750976 8.080727 9.831775 3
 1.642432 7.990613 9.633110 3
 3.277499 6.994697 10.272283 3
 3.467101 7.227109 10.694299 3
 2.761153 6.941907 9.703149 3
 3.316807 6.787547 10.104439 3
 4.464261 7.193318 11.657626 3
 2.559854 7.907807 10.467740 3
 3.170548 6.517179 9.687807 3
 3.481405 6.723879 10.205363 3
 4.258708 7.599420 11.858191 3
 1.703635 7.898520 9.602221 3
 1.753950 6.896599 8.650619 3
 1.824299 6.803420 8.627788 3
 3.652785 7.454267 11.107131 3
 3.256470 6.430376 9.686924 3
 1.888285 6.699817 8.588178 3
 3.366880 7.285813 10.652779 3
 3.278885 7.344421 10.623397 3
 3.451642 7.720843 11.172562 3
 3.008007 7.820422 10.828506 3
 2.898241 7.744026 10.642349 3
 1.842852 7.773014 9.615933 3
 1.878363 7.667325 9.545756 3
 1.823849 6.603411 8.427341 3
 2.911109 7.846158 10.757353 3
 1.782536 7.690072 9.472672 3
 3.018186 7.962210 10.980474 3
 1.811099 7.010266 8.821439 3
 3.519023 6.909560 10.428664 3
 3.408854 7.624741 11.033686 3
 2.733116 6.724302 9.457504 3
 1.919563 7.564223 9.483858 3
 4.274262 7.493560 11.767879 3
 4.140000 7.877362 12.017429 3
 1 2 3 
 3 2 4 
 5 6 7 
 8 9 10 
 11 12 13 
 13 12 14 
 15 16 17 
 18 19 20 
 21 20 19 
 9 22 10 
 23 24 25 
 23 26 24 
 27 28 1 
 29 1 28 
 30 31 32 
 22 33 10 
 34 35 36 
 37 38 39 
 40 31 30 
 16 2 17 
 41 42 43 
 44 45 46 
 46 45 47 
 48 49 50 
 51 52 53 
 54 53 52 
 4 55 33 
 56 57 58 
 37 59 38 
 55 10 33 
 60 50 49 
 61 57 62 
 56 62 57 
 63 64 65 
 66 65 64 
 61 67 57 
 29 2 1 
 68 69 70 
 71 31 40 
 72 47 64 
 73 70 74 
 75 76 77 
 78 41 43 
 79 80 81 
 24 81 80 
 67 82 83 
 4 33 84 
 85 67 83 
 86 77 76 
 47 87 64 
 88 89 90 
 88 91 89 
 73 74 92 
 93 57 94 
 95 96 97 
 98 99 100 
 91 101 102 
 61 103 104 
 105 106 107 
 73 108 70 
 68 70 108 
 35 109 36 
 105 110 106 
 111 43 42 
 112 113 114 
 115 114 113 
 98 116 99 
 54 97 96 
 5 117 118 
 85 119 94 
 5 118 6 
 72 46 47 
 120 121 122 
 123 122 121 
 124 94 119 
 37 125 59 
 126 127 128 
 128 127 129 
 56 55 15 
 130 91 102 
 71 131 132 
 93 58 57 
 86 104 77 
 120 77 104 
 133 134 135 
 136 92 74 
 137 138 139 
 37 39 140 
 141 142 143 
 44 46 144 
 61 104 82 
 145 146 147 
 29 148 2 
 149 115 113 
 150 149 113 
 151 152 153 
 154 153 152 
 105 155 110 
 151 110 155 
 156 157 158 
 159 144 46 
 4 16 55 
 56 10 55 
 136 160 161 
 162 161 160 
 68 108 117 
 145 140 163 
 17 2 148 
 164 28 165 
 85 94 67 
 29 166 138 
 24 80 25 
 17 62 15 
 56 15 62 
 167 135 134 
 75 77 168 
 68 169 69 
 170 171 172 
 173 172 171 
 174 102 101 
 29 138 175 
 159 176 144 
 177 178 153 
 56 58 179 
 27 165 28 
 71 132 31 
 151 153 178 
 132 131 69 
 84 147 146 
 180 8 181 
 182 181 8 
 137 183 138 
 120 184 77 
 126 185 127 
 185 164 127 
 95 97 186 
 21 187 50 
 4 84 146 
 72 188 189 
 182 8 179 
 190 191 26 
 162 122 161 
 192 107 106 
 193 194 195 
 196 197 198 
 34 198 197 
 18 176 199 
 123 143 142 
 57 67 94 
 200 201 202 
 203 204 205 
 145 163 146 
 206 110 207 
 208 91 209 
 88 209 91 
 71 40 210 
 132 186 211 
 79 212 80 
 111 165 213 
 66 64 87 
 27 214 171 
 21 50 215 
 27 1 216 
 120 104 103 
 123 217 143 
 60 218 50 
 54 219 97 
 98 158 157 
 220 125 221 
 72 189 222 
 44 144 223 
 145 224 140 
 225 226 227 
 228 229 230 
 111 213 231 
 232 229 228 
 159 222 233 
 234 23 25 
 35 234 25 
 151 178 110 
 23 197 235 
 32 236 237 
 208 65 101 
 123 161 122 
 180 238 8 
 123 121 217 
 69 169 239 
 141 143 240 
 241 242 243 
 244 243 242 
 189 233 222 
 203 205 245 
 208 246 65 
 95 186 239 
 164 165 247 
 248 249 250 
 241 125 242 
 37 242 125 
 39 163 140 
 95 239 169 
 54 52 219 
 123 251 161 
 220 252 253 
 203 152 254 
 220 221 252 
 255 256 103 
 120 103 256 
 51 250 257 
 258 257 250 
 254 152 155 
 72 222 46 
 159 233 259 
 260 211 186 
 261 262 160 
 138 185 139 
 84 33 205 
 22 205 33 
 248 90 89 
 29 28 166 
 34 234 35 
 129 14 12 
 133 135 230 
 173 171 214 
 241 221 125 
 202 259 233 
 193 181 263 
 159 46 222 
 115 264 226 
 18 144 176 
 208 209 265 
 120 256 121 
 206 106 110 
 266 267 41 
 32 211 236 
 61 268 103 
 132 69 239 
 11 13 269 
 266 269 13 
 123 142 251 
 226 270 227 
 132 211 31 
 51 257 52 
 27 171 213 
 141 271 142 
 8 10 179 
 22 245 205 
 272 252 221 
 273 135 270 
 274 270 135 
 111 247 165 
 255 103 275 
 174 101 65 
 276 259 201 
 202 201 259 
 164 247 127 
 72 277 188 
 35 278 109 
 174 65 279 
 66 279 65 
 276 176 259 
 159 259 176 
 85 83 280 
 281 280 83 
 63 277 64 
 72 64 277 
 141 109 278 
 24 26 191 
 70 69 131 
 86 82 104 
 50 218 215 
 282 90 283 
 272 156 284 
 203 285 204 
 170 231 171 
 136 161 251 
 63 65 246 
 66 227 279 
 274 279 227 
 4 2 16 
 232 286 262 
 287 262 286 
 273 226 264 
 44 114 45 
 182 263 181 
 11 269 288 
 27 216 214 
 274 289 279 
 164 166 28 
 77 184 168 
 248 89 249 
 86 83 82 
 162 184 122 
 248 250 290 
 44 291 114 
 174 279 289 
 120 122 184 
 292 139 128 
 126 128 139 
 273 264 228 
 150 113 293 
 162 168 184 
 258 236 294 
 61 62 268 
 258 294 257 
 295 146 163 
 34 36 12 
 129 12 36 
 51 296 250 
 173 297 38 
 136 251 92 
 75 168 298 
 287 298 168 
 47 45 225 
 87 47 225 
 299 92 251 
 154 300 153 
 258 250 249 
 241 116 301 
 302 127 247 
 130 89 91 
 299 251 142 
 167 303 102 
 208 101 91 
 304 280 293 
 23 234 197 
 17 268 62 
 27 213 165 
 244 140 224 
 154 245 9 
 192 305 306 
 39 38 297 
 304 293 113 
 160 262 307 
 34 197 234 
 61 82 67 
 281 293 280 
 241 243 116 
 154 9 238 
 255 148 175 
 115 149 264 
 241 301 221 
 55 16 15 
 273 230 135 
 308 228 264 
 137 217 309 
 136 310 160 
 258 249 303 
 244 242 140 
 37 140 242 
 258 237 236 
 292 36 109 
 88 282 311 
 258 303 237 
 162 160 307 
 261 160 310 
 193 195 312 
 308 286 228 
 232 228 286 
 295 3 146 
 73 92 313 
 225 45 114 
 132 239 186 
 70 314 74 
 261 74 314 
 299 142 271 
 255 175 183 
 63 315 277 
 21 19 187 
 154 152 245 
 203 245 152 
 272 221 301 
 204 224 147 
 295 214 216 
 121 309 217 
 98 301 116 
 18 199 19 
 11 198 12 
 126 139 185 
 180 300 238 
 167 102 289 
 34 12 198 
 193 312 181 
 98 100 158 
 32 237 134 
 112 114 291 
 274 135 289 
 99 316 100 
 317 318 172 
 170 172 318 
 208 265 246 
 154 238 300 
 273 270 226 
 115 226 319 
 129 127 14 
 302 14 127 
 225 319 226 
 73 313 320 
 295 216 3 
 167 134 237 
 170 318 321 
 75 322 323 
 204 147 205 
 112 20 324 
 21 324 20 
 75 298 322 
 170 321 43 
 130 303 249 
 304 218 280 
 167 289 135 
 124 325 326 
 287 307 262 
 60 119 280 
 85 280 119 
 225 114 319 
 105 327 254 
 328 254 327 
 261 310 74 
 167 237 303 
 115 319 114 
 23 235 26 
 93 94 326 
 124 326 94 
 79 118 320 
 117 320 118 
 145 147 224 
 18 20 223 
 136 74 310 
 78 43 321 
 60 280 218 
 112 291 20 
 78 321 329 
 133 230 229 
 17 148 275 
 93 326 194 
 330 194 326 
 162 307 168 
 287 168 307 
 130 102 303 
 99 116 331 
 330 325 332 
 48 332 325 
 273 228 230 
 39 297 163 
 295 163 297 
 173 214 297 
 93 263 58 
 182 58 263 
 292 128 36 
 129 36 128 
 70 131 314 
 71 314 131 
 182 179 58 
 302 247 42 
 299 313 92 
 196 198 288 
 173 333 172 
 232 334 229 
 4 146 3 
 170 43 231 
 255 275 148 
 40 229 334 
 232 262 334 
 130 249 89 
 111 42 247 
 32 31 211 
 304 113 335 
 112 335 113 
 79 313 212 
 137 309 183 
 261 334 262 
 138 183 175 
 308 298 286 
 287 286 298 
 304 335 215 
 21 215 324 
 330 326 325 
 261 314 210 
 173 38 333 
 304 215 218 
 86 76 83 
 281 83 76 
 41 267 42 
 302 42 267 
 103 268 275 
 137 336 217 
 29 175 148 
 111 231 43 
 317 172 333 
 151 155 152 
 93 194 263 
 193 263 194 
 116 243 331 
 302 13 14 
 308 264 149 
 18 223 144 
 203 254 285 
 302 267 13 
 266 13 267 
 225 227 87 
 150 293 323 
 281 323 293 
 11 288 198 
 84 205 147 
 52 294 219 
 261 210 334 
 272 157 156 
 295 297 214 
 143 217 336 
 272 284 252 
 281 76 323 
 75 323 76 
 260 236 211 
 272 301 157 
 88 90 282 
 141 240 109 
 274 227 270 
 171 231 213 
 17 275 268 
 244 337 243 
 328 243 337 
 44 223 291 
 20 291 223 
 79 320 313 
 260 219 294 
 63 338 315 
 248 283 90 
 35 25 278 
 73 320 108 
 117 108 320 
 66 87 227 
 52 257 294 
 80 271 278 
 141 278 271 
 192 306 316 
 100 316 306 
 1 3 216 
 328 331 243 
 97 219 186 
 260 186 219 
 56 179 10 
 124 49 325 
 32 134 30 
 328 285 254 
 292 109 240 
 260 294 236 
 105 254 155 
 255 183 309 
 137 139 336 
 22 9 245 
 71 210 314 
 6 81 191 
 24 191 81 
 292 336 139 
 180 181 312 
 124 119 49 
 60 49 119 
 189 339 233 
 80 278 25 
 88 311 209 
 265 338 246 
 133 30 134 
 189 188 339 
 174 289 102 
 79 81 118 
 6 118 81 
 308 149 322 
 150 322 149 
 110 178 207 
 177 207 178 
 206 305 106 
 248 290 283 
 98 157 301 
 40 334 210 
 204 337 224 
 244 224 337 
 133 229 30 
 40 30 229 
 299 212 313 
 255 309 256 
 150 323 322 
 105 107 327 
 99 327 107 
 292 240 336 
 308 322 298 
 8 238 9 
 192 106 305 
 121 256 309 
 63 246 338 
 80 212 271 
 299 271 212 
 99 107 316 
 138 166 185 
 164 185 166 
 99 331 327 
 6 191 7 
 190 7 191 
 143 336 240 
 112 324 335 
 215 335 324 
 48 325 49 
 328 337 285 
 328 327 331 
 192 316 107 
 250 296 290 
 204 285 337 
