TITLE      =  "2D FE Unstructured grid data" 
VARIABLES = "X", "Y", "U", "Dom" 
ZONE T="P1", F=FEPOINT, N= 343 E= 618  ET=TRIANGLE 
 1.891838 1.660905 3.552728 8
 1.812134 1.749249 3.561369 8
 1.768777 1.588196 3.356961 8
 1.715435 1.715435 3.430858 8
 2.224255 0.306330 2.530583 8
 2.388637 0.301507 2.690140 8
 2.347324 0.430043 2.777362 8
 2.234407 0.657481 2.891880 8
 2.120073 0.575014 2.695081 8
 2.240137 0.511258 2.751390 8
 1.127248 1.726203 2.853445 8
 1.287513 1.779542 3.067049 8
 1.172185 1.879920 3.052101 8
 1.198950 0.801339 2.000285 8
 1.130480 0.928674 2.059150 8
 1.047596 0.816552 1.864144 8
 2.287620 1.524415 3.812016 8
 2.254541 1.369898 3.624420 8
 2.361500 1.418024 3.779505 8
 0.790780 1.521364 2.312140 8
 0.866223 1.686136 2.552356 8
 0.720848 1.668843 2.389688 8
 2.169859 1.495364 3.665205 8
 1.616217 1.525900 3.142106 8
 1.625544 1.659426 3.284960 8
 1.334896 0.555154 1.890046 8
 1.426591 0.410512 1.837100 8
 1.466554 0.565998 2.032548 8
 1.919936 1.270345 3.190271 8
 1.755492 1.254920 3.010401 8
 1.871586 1.127154 2.998730 8
 1.739587 1.082100 2.821679 8
 2.271795 0.209714 2.481508 8
 1.527778 0.000000 1.527778 8
 1.666667 0.000000 1.666667 8
 1.589848 0.164068 1.753915 8
 2.339659 0.578731 2.918381 8
 1.305229 0.389658 1.694884 8
 0.985853 1.824786 2.810635 8
 1.035779 1.969255 3.005032 8
 0.868734 0.211318 1.080052 8
 0.964521 0.286455 1.250975 8
 0.812346 0.369957 1.182301 8
 1.582600 0.637034 2.219630 8
 1.586031 0.794422 2.380449 8
 1.444892 0.702479 2.147367 8
 1.455321 0.867097 2.322412 8
 1.700395 1.421035 3.121419 8
 1.848912 1.412530 3.261430 8
 1.805556 0.000000 1.805556 8
 1.903467 0.135013 2.038481 8
 1.734081 0.126238 1.860318 8
 1.218172 1.198164 2.416331 8
 1.350614 1.261764 2.612372 8
 1.181875 1.340844 2.522714 8
 0.311474 0.668788 0.980261 8
 0.467381 0.608861 1.076240 8
 0.442229 0.729840 1.172067 8
 1.950579 1.542280 3.492844 8
 0.000000 1.388889 1.388889 8
 0.149972 1.286949 1.436921 8
 0.099357 1.458333 1.557689 8
 1.388889 0.000000 1.388889 8
 1.451688 0.102339 1.554026 8
 1.291612 0.150376 1.441987 8
 1.618358 0.331709 1.950065 8
 1.559231 0.486486 2.045712 8
 1.495906 0.308210 1.804112 8
 1.969311 1.019273 2.988576 8
 2.061746 0.892063 2.953801 8
 2.102736 1.025609 3.128335 8
 0.833333 0.000000 0.833333 8
 0.952749 0.121463 1.074212 8
 0.771428 0.118995 0.890423 8
 0.000000 0.833333 0.833333 8
 0.118995 0.771428 0.890423 8
 0.121463 0.952749 1.074212 8
 0.900401 1.538032 2.438431 8
 2.810024 0.456545 3.266566 8
 2.650289 0.424858 3.075142 8
 2.789191 0.325970 3.115160 8
 0.375573 0.517925 0.893497 8
 0.579927 1.330083 1.910006 8
 0.693155 1.242052 1.935202 8
 0.699880 1.394122 2.093999 8
 2.322065 1.125849 3.447898 8
 2.203482 1.235145 3.438612 8
 2.203379 1.083952 3.287318 8
 1.224287 0.296905 1.521190 8
 1.202538 0.454328 1.656864 8
 1.086883 0.329925 1.416806 8
 1.204282 1.580212 2.784488 8
 1.276246 1.667205 2.943444 8
 1.604082 1.158693 2.762769 8
 0.210360 1.430914 1.641273 8
 0.309166 1.491194 1.800359 8
 0.166367 1.576067 1.742433 8
 0.269519 0.553090 0.822609 8
 0.268505 0.404020 0.672524 8
 0.916679 1.238047 2.154723 8
 0.965835 1.099162 2.064994 8
 1.031494 1.177436 2.208925 8
 0.339635 1.612239 1.951872 8
 2.437385 1.333153 3.770518 8
 2.344617 1.257511 3.602112 8
 2.440845 1.158403 3.599235 8
 2.500000 0.000000 2.500000 8
 2.638889 0.000000 2.638889 8
 2.580803 0.155104 2.735905 8
 2.446260 0.545086 2.991339 8
 1.083317 1.567965 2.651277 8
 0.191461 0.489829 0.681289 8
 1.345006 0.811477 2.156479 8
 0.340190 0.827867 1.168056 8
 0.859163 1.097124 1.956284 8
 1.556893 1.896948 3.453831 8
 1.426256 1.824901 3.251149 8
 1.530432 1.733837 3.264259 8
 0.409535 0.412463 0.821997 8
 0.000000 1.250000 1.250000 8
 1.250000 0.000000 1.250000 8
 2.705536 0.097139 2.802674 8
 0.142591 0.344801 0.487392 8
 0.293416 0.264023 0.557438 8
 0.507339 1.134566 1.641902 8
 0.563142 0.991858 1.554997 8
 0.619008 1.146263 1.765266 8
 0.196901 0.196901 0.393802 8
 2.114829 1.161689 3.276505 8
 1.428417 0.211565 1.639979 8
 0.963276 0.910615 1.873887 8
 0.494141 0.194617 0.688757 8
 0.426389 0.291239 0.717627 8
 0.354120 0.138728 0.492847 8
 0.955972 0.412901 1.368870 8
 0.651486 1.530363 2.181846 8
 2.529763 0.315156 2.844915 8
 2.496198 0.441729 2.937920 8
 0.998214 1.483394 2.481605 8
 1.034647 1.338494 2.373137 8
 1.096392 1.437640 2.534028 8
 0.914497 1.418791 2.333284 8
 2.201414 0.412802 2.614212 8
 1.612268 1.306570 2.918831 8
 0.705132 1.066432 1.771559 8
 2.083333 0.000000 2.083333 8
 2.222222 0.000000 2.222222 8
 2.155499 0.130976 2.286475 8
 0.677595 0.299934 0.977528 8
 0.644156 0.449829 1.093983 8
 0.555341 0.298229 0.853569 8
 0.519273 0.410918 0.930189 8
 1.311510 1.415828 2.727332 8
 0.587877 1.751007 2.338883 8
 0.651550 1.897666 2.549217 8
 0.528754 1.862419 2.391173 8
 2.705582 0.204520 2.910100 8
 2.647284 0.296403 2.943683 8
 1.322060 0.701230 2.023286 8
 0.729831 1.793274 2.523104 8
 0.800232 1.190266 1.990494 8
 0.810924 1.353468 2.164388 8
 1.019990 1.005327 2.025314 8
 1.627476 1.784595 3.412060 8
 1.940146 0.871278 2.811415 8
 1.126688 0.709832 1.836515 8
 2.023181 0.094830 2.118010 8
 0.349809 0.337138 0.686946 8
 1.802902 0.244661 2.047561 8
 1.284990 0.997983 2.282969 8
 1.130524 1.080647 2.211166 8
 2.138441 0.481055 2.619490 8
 0.213983 0.864530 1.078513 8
 1.636586 1.009266 2.645844 8
 1.732573 0.938516 2.671082 8
 0.555556 0.000000 0.555556 8
 0.694444 0.000000 0.694444 8
 0.624231 0.153507 0.777738 8
 0.000000 0.694444 0.694444 8
 0.000000 0.555556 0.555556 8
 0.152226 0.623898 0.776124 8
 0.418746 1.759923 2.178670 8
 2.065522 1.484890 3.550395 8
 2.097991 1.597253 3.695223 8
 0.000000 1.527778 1.527778 8
 1.710454 0.548027 2.258476 8
 0.849068 1.832281 2.681345 8
 1.321646 1.882507 3.204147 8
 0.580966 1.624627 2.205593 8
 1.998213 1.664424 3.662619 8
 0.759233 0.229289 0.988522 8
 1.494737 1.249506 2.744236 8
 1.464182 1.376227 2.840402 8
 1.846440 0.980156 2.826587 8
 1.341398 0.280135 1.621531 8
 1.831876 0.613857 2.445729 8
 1.973511 0.573318 2.546823 8
 1.925536 0.727707 2.653237 8
 2.071491 0.687137 2.758619 8
 1.002043 1.704599 2.706638 8
 1.580054 1.423513 3.003557 8
 1.117136 0.585166 1.702298 8
 0.943857 0.568149 1.512002 8
 1.061277 0.470094 1.531367 8
 1.728074 0.715074 2.443142 8
 0.590910 1.441185 2.032091 8
 1.345885 1.133201 2.479082 8
 0.568243 1.226271 1.794510 8
 1.645534 0.899312 2.544839 8
 1.544757 0.940892 2.485643 8
 1.507207 1.487833 2.995032 8
 0.878031 0.714775 1.592802 8
 0.778876 0.819733 1.598605 8
 0.717826 0.702975 1.420797 8
 1.691617 0.243349 1.934964 8
 2.413283 1.549996 3.963257 8
 0.472575 1.652194 2.124768 8
 0.487143 0.090776 0.577918 8
 0.086995 0.486111 0.573105 8
 2.581689 0.570891 3.152572 8
 0.630066 0.830477 1.460539 8
 0.492288 0.849073 1.341358 8
 0.592840 0.709844 1.302682 8
 0.786546 0.529079 1.315622 8
 1.818970 0.832252 2.651213 8
 1.244893 1.102499 2.347387 8
 0.277778 0.000000 0.277778 8
 0.416667 0.000000 0.416667 8
 0.000000 0.416667 0.416667 8
 0.000000 0.277778 0.277778 8
 1.672118 0.432130 2.104244 8
 3.055556 0.000000 3.055556 8
 3.056968 0.169976 3.226943 8
 2.952795 0.107677 3.060470 8
 1.115047 1.241050 2.356093 8
 0.390641 1.407513 1.798152 8
 0.441784 1.278391 1.720174 8
 0.496440 1.418488 1.914926 8
 1.458757 1.139654 2.598404 8
 1.944444 0.000000 1.944444 8
 2.162515 0.902203 3.064709 8
 1.994545 1.394618 3.389150 8
 2.029161 0.208161 2.237323 8
 1.859522 1.853826 3.713333 8
 1.928613 1.772891 3.701487 8
 1.990244 1.885894 3.876120 8
 1.223186 0.559792 1.782974 8
 0.910307 0.820293 1.730597 8
 0.972222 0.000000 0.972222 8
 0.000000 0.972222 0.972222 8
 1.226026 0.652913 1.878934 8
 0.783778 1.939588 2.723366 8
 2.314593 1.659975 3.974546 8
 1.003319 0.703230 1.706544 8
 2.420148 1.007251 3.427386 8
 2.910152 0.242337 3.152486 8
 2.777778 0.000000 2.777778 8
 2.916667 0.000000 2.916667 8
 2.824630 0.126071 2.950698 8
 1.414830 1.003783 2.418609 8
 0.407763 0.954280 1.362041 8
 0.280749 0.962352 1.243100 8
 0.799050 1.004161 1.803207 8
 2.026828 0.785144 2.811964 8
 2.076653 0.355921 2.432572 8
 1.928411 0.294825 2.223234 8
 1.942917 0.425354 2.368269 8
 0.304244 1.212124 1.516366 8
 0.299258 1.339156 1.638412 8
 0.804001 0.635863 1.439861 8
 1.058497 0.184312 1.242808 8
 0.184312 1.058497 1.242809 8
 0.711231 0.936692 1.647919 8
 0.437769 1.057717 1.495483 8
 0.588144 0.588144 1.176285 8
 0.513241 0.509499 1.022738 8
 2.463426 0.213157 2.676580 8
 2.378560 0.187229 2.565789 8
 1.412666 1.711518 3.124176 8
 2.037129 0.482115 2.519240 8
 0.967330 1.604430 2.571757 8
 1.494926 1.608590 3.103508 8
 1.201904 1.471797 2.673696 8
 2.173393 0.790393 2.963777 8
 0.000000 0.000000 0.000000 8
 0.138889 0.000000 0.138889 8
 0.114254 0.114254 0.228508 8
 0.000000 0.138889 0.138889 8
 1.717798 1.875217 3.593004 8
 0.877952 0.476651 1.354600 8
 1.297043 1.547593 2.844629 8
 1.152123 0.105043 1.257165 8
 0.104976 1.151346 1.256323 8
 1.998749 1.156131 3.154869 8
 2.361111 0.000000 2.361111 8
 2.439367 0.106791 2.546157 8
 2.293406 0.104691 2.398095 8
 1.708324 0.828011 2.536330 8
 0.694410 0.592424 1.286832 8
 1.854079 0.501035 2.355110 8
 1.834179 0.376955 2.211131 8
 0.227374 0.751302 0.978675 8
 1.396836 1.506192 2.903021 8
 2.060268 1.266113 3.326368 8
 2.130070 1.378753 3.508807 8
 0.912848 1.945715 2.858562 8
 2.307020 0.783294 3.090302 8
 1.153550 0.213930 1.367479 8
 0.213930 1.153550 1.367479 8
 0.216388 0.089976 0.306364 8
 0.091278 0.219877 0.311155 8
 0.829501 0.908576 1.738073 8
 2.310028 0.998124 3.308139 8
 2.897116 0.362254 3.259368 8
 1.378407 1.612362 2.990762 8
 2.214086 0.980023 3.194098 8
 2.132638 0.245777 2.378413 8
 2.262382 0.888277 3.150648 8
 1.759653 0.444356 2.204007 8
 0.319502 1.079225 1.398726 8
 0.000000 1.111111 1.111111 8
 1.111111 0.000000 1.111111 8
 2.460347 0.671721 3.132059 8
 1.268035 0.888256 2.156287 8
 1.532904 1.058559 2.591457 8
 2.352547 0.687952 3.040490 8
 1.719057 0.348415 2.067471 8
 2.033170 1.767027 3.800179 8
 0.526815 1.532871 2.059685 8
 2.401212 0.886268 3.287468 8
 0.402869 1.155797 1.558664 8
 0.416624 1.526584 1.943206 8
 1.826902 0.719624 2.546521 8
 2.129306 1.804879 3.934163 8
 2.807389 0.224724 3.032112 8
 2.200007 1.619631 3.819616 8
 1.357789 0.913241 2.271026 8
 2.217895 1.739479 3.957351 8
 1.047968 0.081641 1.129609 8
 0.081641 1.047968 1.129608 8
 0.904912 1.004763 1.909671 8
 2.112085 1.701302 3.813365 8
 2.416507 0.770873 3.187371 8
 1 2 3 
 3 2 4 
 5 6 7 
 8 9 10 
 11 12 13 
 14 15 16 
 17 18 19 
 20 21 22 
 17 23 18 
 24 3 25 
 3 4 25 
 26 27 28 
 29 30 31 
 32 31 30 
 5 33 6 
 34 35 36 
 37 8 10 
 26 38 27 
 11 13 39 
 40 39 13 
 41 42 43 
 44 45 46 
 47 46 45 
 48 49 3 
 50 51 52 
 53 54 55 
 56 57 58 
 59 3 49 
 29 49 30 
 48 30 49 
 60 61 62 
 63 64 65 
 66 67 68 
 27 68 67 
 69 70 71 
 72 73 74 
 75 76 77 
 20 78 21 
 79 80 81 
 56 82 57 
 83 84 85 
 86 87 88 
 89 90 91 
 11 92 93 
 11 93 12 
 32 30 94 
 95 96 97 
 82 98 99 
 100 101 102 
 103 97 96 
 104 105 106 
 107 108 109 
 37 7 110 
 11 111 92 
 44 46 28 
 112 99 98 
 47 113 46 
 56 58 114 
 100 115 101 
 116 117 118 
 82 99 119 
 60 120 61 
 121 63 65 
 48 3 24 
 108 122 109 
 123 124 99 
 59 1 3 
 125 126 127 
 128 124 123 
 129 88 87 
 130 36 68 
 16 15 131 
 66 68 36 
 105 87 86 
 132 133 134 
 134 133 124 
 135 43 42 
 20 136 85 
 26 90 38 
 6 137 138 
 7 6 138 
 139 140 141 
 142 140 139 
 5 7 143 
 48 144 30 
 145 127 126 
 146 147 148 
 149 150 151 
 152 151 150 
 56 98 82 
 153 55 54 
 154 155 156 
 157 158 109 
 137 109 158 
 159 26 46 
 46 26 28 
 154 160 155 
 84 161 162 
 163 131 15 
 116 118 164 
 69 165 70 
 100 162 161 
 14 16 166 
 146 148 167 
 168 119 99 
 169 52 51 
 170 171 15 
 100 102 140 
 95 62 61 
 130 65 64 
 172 10 9 
 27 67 28 
 41 74 73 
 173 77 76 
 95 97 62 
 130 64 36 
 145 161 84 
 32 174 175 
 176 177 178 
 179 180 181 
 154 156 182 
 183 184 59 
 34 36 64 
 185 62 97 
 35 52 36 
 44 67 186 
 187 21 39 
 80 158 81 
 12 188 13 
 154 189 22 
 184 190 59 
 41 43 191 
 7 138 110 
 192 144 193 
 32 175 194 
 145 84 127 
 27 195 68 
 196 197 198 
 199 198 197 
 157 109 122 
 11 200 111 
 160 21 187 
 22 21 160 
 30 144 94 
 144 201 193 
 202 203 204 
 135 204 203 
 37 10 7 
 44 205 45 
 85 136 206 
 132 178 151 
 149 151 178 
 53 207 54 
 83 208 84 
 209 210 45 
 47 45 210 
 48 24 201 
 211 201 24 
 212 213 214 
 66 36 215 
 17 19 216 
 103 217 182 
 176 178 218 
 180 219 181 
 137 80 138 
 220 138 80 
 69 31 194 
 221 222 223 
 58 223 222 
 90 204 91 
 224 150 43 
 149 43 150 
 225 198 165 
 170 226 171 
 154 182 217 
 227 228 134 
 229 230 123 
 32 194 31 
 67 231 186 
 22 189 136 
 232 233 234 
 53 235 171 
 102 171 235 
 100 140 142 
 7 10 143 
 84 162 85 
 145 115 161 
 141 140 55 
 236 237 238 
 239 192 54 
 207 239 54 
 50 240 51 
 70 241 71 
 29 242 49 
 59 49 242 
 243 167 148 
 130 68 195 
 39 21 200 
 244 245 246 
 20 162 142 
 83 238 237 
 105 86 106 
 26 247 90 
 20 22 136 
 212 248 213 
 72 249 73 
 250 75 77 
 154 22 160 
 14 251 159 
 187 252 160 
 155 160 252 
 17 216 253 
 44 28 67 
 14 159 113 
 16 248 254 
 212 254 248 
 132 218 178 
 112 181 219 
 255 106 86 
 256 234 233 
 257 258 259 
 170 260 207 
 100 161 115 
 261 262 114 
 173 114 262 
 145 263 115 
 198 264 165 
 243 265 266 
 267 266 265 
 59 190 1 
 20 85 162 
 202 254 203 
 212 203 254 
 268 269 61 
 95 61 269 
 202 204 90 
 224 203 270 
 271 42 73 
 272 77 262 
 243 266 51 
 169 51 266 
 236 269 237 
 163 15 171 
 221 273 126 
 145 126 273 
 125 274 126 
 212 270 203 
 221 126 222 
 261 222 126 
 89 38 90 
 275 276 150 
 137 277 109 
 278 6 33 
 275 223 57 
 58 57 223 
 212 214 270 
 163 171 101 
 177 74 178 
 179 181 76 
 105 19 18 
 221 214 213 
 12 93 279 
 229 123 219 
 228 218 134 
 197 280 9 
 281 111 200 
 202 90 247 
 211 24 282 
 102 101 171 
 141 283 111 
 41 73 42 
 173 262 77 
 221 223 214 
 112 219 123 
 132 134 218 
 196 205 186 
 44 186 205 
 199 8 284 
 55 140 235 
 199 197 9 
 92 111 283 
 285 286 287 
 285 287 288 
 56 181 98 
 112 98 181 
 4 2 289 
 244 289 2 
 192 94 144 
 224 290 203 
 149 191 43 
 153 291 283 
 225 165 194 
 69 194 165 
 121 65 292 
 120 293 61 
 27 38 195 
 69 71 294 
 129 294 71 
 295 296 297 
 69 294 31 
 20 142 78 
 137 158 80 
 105 104 19 
 45 205 298 
 58 222 114 
 261 114 222 
 152 150 276 
 268 237 269 
 107 109 296 
 29 31 294 
 261 126 274 
 275 150 299 
 116 164 289 
 100 142 162 
 258 232 234 
 135 203 290 
 267 300 301 
 149 178 191 
 56 302 181 
 281 21 78 
 35 50 52 
 153 193 303 
 129 87 304 
 305 304 87 
 16 254 166 
 209 175 174 
 157 81 158 
 187 39 306 
 199 284 264 
 147 297 148 
 258 234 259 
 307 284 8 
 305 242 304 
 29 304 242 
 89 308 65 
 268 61 309 
 170 207 226 
 53 226 207 
 278 297 296 
 227 134 310 
 128 310 134 
 128 123 311 
 230 311 123 
 312 213 248 
 255 86 313 
 79 81 314 
 177 72 74 
 75 179 76 
 12 279 117 
 315 279 93 
 153 303 291 
 316 71 241 
 214 223 299 
 275 299 223 
 168 99 124 
 40 306 39 
 192 239 94 
 211 303 193 
 243 148 317 
 209 45 298 
 172 280 265 
 307 318 284 
 319 301 300 
 305 183 242 
 135 91 204 
 271 91 42 
 272 262 320 
 120 321 293 
 322 121 292 
 224 299 150 
 128 134 124 
 112 123 99 
 168 124 133 
 220 323 110 
 14 324 15 
 170 15 324 
 236 96 269 
 95 269 96 
 70 264 284 
 130 195 65 
 89 65 195 
 256 259 234 
 83 85 206 
 211 193 201 
 267 265 280 
 207 260 239 
 4 289 164 
 325 174 94 
 26 159 251 
 267 197 300 
 196 300 197 
 32 94 174 
 284 318 241 
 118 282 25 
 172 265 143 
 56 114 302 
 325 94 239 
 173 302 114 
 37 326 8 
 307 8 326 
 169 327 215 
 135 290 43 
 224 43 290 
 319 300 186 
 196 186 300 
 169 301 327 
 118 279 282 
 328 246 245 
 11 39 200 
 172 9 280 
 187 306 252 
 305 18 23 
 220 110 138 
 225 194 175 
 5 143 265 
 329 206 136 
 66 231 67 
 255 313 330 
 141 55 283 
 37 110 323 
 135 42 91 
 261 320 262 
 24 25 282 
 178 74 191 
 181 302 76 
 37 323 326 
 89 91 308 
 271 308 91 
 268 309 320 
 272 320 309 
 70 165 264 
 256 314 81 
 211 282 303 
 315 303 282 
 243 317 265 
 5 265 317 
 36 52 215 
 169 215 52 
 82 119 276 
 202 251 166 
 59 242 183 
 257 259 122 
 157 122 259 
 105 18 87 
 153 283 55 
 305 23 183 
 268 320 331 
 268 331 237 
 84 208 127 
 153 54 193 
 148 33 317 
 202 247 251 
 129 304 294 
 29 294 304 
 267 301 266 
 103 332 217 
 330 313 318 
 147 295 297 
 196 198 333 
 5 317 33 
 295 107 296 
 328 334 246 
 47 210 260 
 325 260 210 
 125 208 237 
 83 237 208 
 65 308 292 
 61 293 309 
 315 282 279 
 225 333 198 
 14 166 251 
 199 264 198 
 267 280 197 
 199 9 8 
 157 335 81 
 221 213 273 
 48 201 144 
 63 34 64 
 185 60 62 
 256 81 335 
 329 217 332 
 325 239 260 
 261 274 320 
 53 55 235 
 14 113 324 
 125 237 331 
 46 113 159 
 225 205 333 
 192 193 54 
 17 336 23 
 184 23 336 
 26 251 247 
 225 298 205 
 12 117 188 
 319 186 231 
 118 117 279 
 202 166 254 
 196 333 205 
 312 273 213 
 328 245 190 
 1 190 245 
 47 337 113 
 53 171 226 
 281 200 21 
 82 276 57 
 256 335 259 
 102 235 140 
 240 146 167 
 286 227 310 
 230 288 311 
 240 167 51 
 157 259 335 
 316 313 88 
 17 253 336 
 338 336 253 
 108 257 122 
 243 51 167 
 86 88 313 
 92 283 291 
 228 176 218 
 180 229 219 
 152 133 151 
 152 119 133 
 329 332 238 
 152 276 119 
 169 266 301 
 249 322 339 
 321 250 340 
 41 191 74 
 173 76 302 
 305 87 18 
 329 136 189 
 236 238 332 
 312 263 273 
 145 273 263 
 312 248 131 
 170 337 260 
 312 131 341 
 271 339 292 
 322 292 339 
 272 293 340 
 321 340 293 
 184 342 190 
 328 190 342 
 89 195 38 
 307 330 318 
 316 88 71 
 184 183 23 
 307 343 330 
 154 217 189 
 329 189 217 
 286 310 287 
 288 287 311 
 70 284 241 
 129 71 88 
 148 297 33 
 47 260 337 
 316 241 318 
 141 111 139 
 281 139 111 
 236 332 96 
 163 101 341 
 115 341 101 
 132 151 133 
 168 133 119 
 172 143 10 
 249 339 73 
 250 77 340 
 278 33 297 
 66 215 327 
 109 277 296 
 278 296 277 
 103 96 332 
 329 238 206 
 271 292 308 
 272 309 293 
 170 324 337 
 224 270 299 
 214 299 270 
 319 327 301 
 275 57 276 
 272 340 77 
 271 73 339 
 128 311 287 
 128 287 310 
 125 127 208 
 1 245 2 
 244 2 245 
 115 263 341 
 315 291 303 
 316 318 313 
 307 326 343 
 325 210 174 
 142 139 78 
 315 93 291 
 92 291 93 
 137 6 277 
 209 174 210 
 323 343 326 
 320 274 331 
 113 337 324 
 312 341 263 
 16 131 248 
 83 206 238 
 338 342 336 
 4 164 25 
 118 25 164 
 184 336 342 
 66 327 231 
 125 331 274 
 338 334 342 
 163 341 131 
 328 342 334 
 319 231 327 
 225 175 298 
 278 277 6 
 281 78 139 
 209 298 175 
