TITLE      =  "2D FE Unstructured grid data" 
VARIABLES = "X", "Y", "U", "Dom" 
ZONE T="P1", F=FEPOINT, N= 348 E= 625  ET=TRIANGLE 
 4.197526 1.870366 6.067852 6
 4.205878 1.765920 5.971756 6
 4.353964 1.802044 6.155970 6
 4.266956 1.957000 6.223914 6
 4.508610 1.716591 6.225161 6
 4.403931 1.670555 6.074447 6
 4.564542 1.598689 6.163192 6
 4.428215 1.553005 5.981185 6
 5.418162 1.689044 7.107174 6
 5.320665 1.604995 6.925629 6
 5.438151 1.531744 6.969864 6
 5.075511 3.255838 8.331315 6
 4.968703 3.179825 8.148495 6
 5.122739 3.104407 8.227115 6
 4.814559 2.925099 7.739623 6
 4.701535 3.049531 7.751030 6
 4.676769 2.899004 7.575736 6
 3.777970 3.146677 6.924614 6
 3.652420 3.199282 6.851671 6
 3.661256 3.088212 6.749434 6
 3.743002 3.263467 7.006437 6
 3.813725 3.367210 7.180907 6
 3.647573 3.329685 6.977231 6
 4.309810 1.458320 5.768097 6
 4.284656 1.344871 5.629498 6
 4.423867 1.436994 5.860830 6
 3.035245 2.932065 5.967284 6
 2.925088 2.947470 5.872530 6
 2.902174 2.798072 5.700220 6
 4.845317 3.097768 7.943053 6
 5.007074 3.044911 8.051954 6
 5.292080 1.380322 6.672369 6
 5.350010 1.474343 6.824320 6
 5.214271 1.518538 6.732773 6
 5.167317 1.389628 6.556912 6
 3.445907 2.659313 6.105180 6
 3.518409 2.790100 6.308472 6
 3.368222 2.742452 6.110638 6
 2.972581 3.152143 6.124700 6
 3.051320 3.237915 6.289210 6
 2.891829 3.294670 6.186478 6
 3.083775 2.826700 5.910444 6
 3.368343 3.309905 6.678224 6
 3.518182 3.389859 6.908013 6
 3.370279 3.428877 6.799133 6
 4.436863 1.321819 5.758655 6
 5.343924 2.289512 7.633401 6
 5.340167 2.452921 7.793052 6
 5.228862 2.401259 7.630085 6
 3.451608 3.228068 6.679648 6
 2.857611 3.172049 6.029636 6
 4.296433 1.636482 5.932875 6
 3.948735 2.525645 6.474339 6
 3.998096 2.637498 6.635555 6
 3.843473 2.645442 6.488878 6
 3.842246 2.212200 6.054403 6
 3.712051 2.282257 5.994269 6
 3.704172 2.146105 5.850236 6
 4.473174 3.256110 7.729249 6
 4.567456 3.148981 7.716403 6
 4.605954 3.329224 7.935151 6
 4.706223 3.210999 7.917190 6
 5.433549 2.599946 8.033459 6
 5.274381 2.564524 7.838864 6
 3.390509 2.852428 6.242903 6
 3.938292 2.741144 6.679397 6
 5.137704 2.516743 7.654408 6
 5.070802 2.638387 7.709152 6
 4.988203 2.540515 7.528683 6
 3.833107 2.492996 6.326063 6
 4.062547 2.751495 6.814001 6
 3.486349 2.979638 6.465952 6
 3.405792 3.076089 6.481848 6
 3.373044 2.967898 6.340909 6
 3.287072 3.032096 6.319138 6
 5.129714 1.775617 6.905292 6
 4.972393 1.838057 6.810411 6
 5.032820 1.697711 6.730493 6
 3.754267 2.567093 6.321320 6
 4.592384 2.319388 6.911733 6
 4.691078 2.196561 6.887597 6
 4.696296 2.345913 7.042170 6
 4.580345 2.206484 6.786788 6
 5.102249 1.883111 6.985321 6
 5.043925 1.413306 6.457194 6
 5.104763 1.279750 6.384484 6
 4.198955 1.500195 5.699114 6
 4.462722 2.564050 7.026732 6
 4.526483 2.659689 7.186131 6
 4.347877 2.679267 7.027104 6
 4.475300 2.761858 7.237115 6
 5.238379 2.222766 7.461105 6
 4.798086 2.091643 6.889687 6
 4.663584 2.037987 6.701530 6
 3.560399 3.252693 6.813063 6
 3.544816 3.119268 6.664050 6
 4.178657 1.655982 5.834601 6
 4.038846 3.000278 7.039088 6
 4.123266 2.867643 6.990871 6
 4.188133 2.985779 7.173876 6
 3.739409 2.992201 6.731573 6
 4.769942 2.280101 7.050004 6
 4.871974 2.324351 7.196288 6
 4.797622 2.415462 7.213046 6
 4.312762 2.854862 7.167583 6
 4.226376 2.765024 6.991362 6
 4.375290 2.773214 7.148463 6
 4.203020 2.518538 6.721515 6
 4.284287 2.418287 6.702535 6
 4.327531 2.549852 6.877339 6
 3.698022 2.449470 6.147452 6
 3.621327 2.565028 6.186319 6
 3.549135 2.892482 6.441580 6
 4.173781 2.409400 6.583143 6
 4.576276 2.986893 7.563131 6
 3.038144 2.689117 5.727232 6
 2.920684 2.606197 5.526853 6
 3.070481 2.557373 5.627826 6
 3.534906 1.865153 5.400019 6
 3.688168 1.858842 5.546974 6
 3.667001 2.000325 5.667286 6
 5.157799 2.308057 7.465818 6
 4.991894 2.301419 7.293276 6
 5.106811 2.203736 7.310505 6
 4.551707 2.098530 6.650197 6
 4.540506 1.857687 6.398154 6
 4.072998 1.832016 5.904974 6
 4.070199 1.692867 5.763028 6
 4.905974 2.997900 7.903842 6
 2.990162 2.481465 5.471597 6
 3.026370 3.348619 6.374969 6
 4.029822 3.147438 7.177227 6
 3.900661 3.036299 6.936923 6
 5.069596 2.414073 7.483629 6
 3.218712 2.513155 5.731833 6
 3.355587 2.533348 5.888899 6
 3.277953 2.669799 5.947715 6
 4.034224 1.931055 5.965237 6
 3.923554 1.853063 5.776578 6
 4.044223 2.059058 6.103241 6
 4.154537 2.170261 6.324757 6
 3.992948 2.189189 6.182098 6
 4.079422 2.316966 6.396349 6
 4.408943 1.208203 5.617123 6
 5.056581 2.785297 7.841843 6
 5.135196 2.938230 8.073389 6
 4.979111 2.910539 7.889617 6
 4.769167 3.354741 8.123882 6
 5.026401 1.985366 7.011728 6
 5.070536 2.087768 7.158265 6
 4.939309 2.094151 7.033422 6
 5.163724 1.126447 6.290144 6
 5.021739 1.179394 6.201105 6
 5.244003 3.003819 8.247790 6
 4.935095 3.324694 8.259762 6
 4.640522 2.762918 7.403401 6
 3.793797 2.080250 5.874007 6
 4.891725 1.989285 6.880971 6
 3.834103 2.353311 6.187373 6
 3.951665 2.410690 6.362313 6
 4.133937 2.644026 6.777922 6
 4.077076 2.488711 6.565749 6
 3.402265 1.774331 5.176558 6
 3.514709 1.719278 5.233953 6
 4.970611 2.699820 7.670395 6
 4.802077 2.705404 7.507447 6
 4.884775 2.618406 7.503148 6
 4.896239 2.810410 7.706614 6
 3.433949 2.407681 5.841591 6
 3.570265 2.320343 5.890570 6
 3.555036 2.463536 6.018533 6
 3.196591 2.947488 6.144049 6
 4.562850 2.864707 7.427519 6
 3.806587 1.955921 5.762468 6
 3.944605 1.966865 5.911430 6
 2.818202 2.930408 5.748587 6
 4.550630 1.464148 6.014744 6
 4.365158 2.329854 6.694973 6
 4.413340 2.452439 6.865734 6
 4.840199 3.236122 8.076293 6
 3.719571 1.738871 5.458405 6
 3.622439 1.656989 5.279394 6
 3.747811 1.581453 5.329229 6
 3.590630 2.684185 6.274776 6
 4.410639 1.931589 6.342190 6
 3.518463 2.154564 5.672989 6
 3.409978 2.049430 5.459373 6
 3.524222 2.006972 5.531155 6
 3.233610 2.820423 6.053998 6
 3.609948 1.775104 5.385018 6
 4.109686 1.573721 5.683367 6
 4.370944 3.065555 7.436460 6
 4.445385 2.912859 7.358205 6
 4.486003 3.063442 7.549409 6
 4.476840 2.359542 6.836342 6
 4.469009 2.230560 6.699526 6
 3.105634 3.030736 6.136344 6
 4.749104 1.959170 6.708234 6
 3.253668 3.446566 6.700217 6
 3.206612 3.570246 6.776842 6
 3.134465 3.448697 6.583141 6
 4.564247 1.248620 5.812843 6
 3.905096 3.170962 7.076023 6
 3.717463 2.749289 6.466714 6
 3.705432 2.642207 6.347600 6
 3.845217 1.716956 5.562137 6
 3.796619 1.824731 5.621312 6
 4.299214 2.967769 7.266947 6
 3.904215 2.075878 5.980051 6
 3.259622 3.307623 6.567223 6
 3.970571 1.752461 5.722989 6
 3.308843 3.184427 6.493243 6
 3.145880 2.740204 5.886048 6
 5.053280 1.586605 6.639849 6
 5.171651 1.655489 6.827105 6
 5.094077 1.486866 6.580909 6
 4.995025 2.181149 7.176136 6
 3.944857 3.279537 7.224362 6
 4.080956 3.284735 7.365659 6
 3.979446 3.402946 7.382364 6
 4.129733 3.082790 7.212490 6
 5.300575 1.056993 6.357542 6
 5.291018 1.165540 6.456532 6
 3.839779 3.241144 7.080892 6
 4.133654 1.954951 6.088567 6
 4.167809 2.050471 6.218236 6
 3.436522 2.260481 5.696967 6
 4.274614 2.090020 6.364594 6
 3.959849 2.875437 6.835247 6
 3.883708 1.567199 5.450872 6
 4.540211 2.455931 6.996101 6
 4.611162 2.568521 7.179644 6
 4.675114 2.456182 7.131260 6
 4.762679 2.571348 7.333991 6
 3.631456 2.815304 6.446721 6
 3.485706 2.552667 6.038334 6
 4.224841 2.889864 7.114668 6
 5.553119 2.562042 8.115123 6
 5.494925 2.694721 8.189612 6
 5.621850 2.687035 8.308856 6
 5.438052 1.373489 6.811510 6
 5.350778 1.260211 6.610960 6
 4.312671 2.198335 6.510963 6
 4.106912 3.411744 7.518629 6
 4.928566 2.422585 7.351112 6
 3.393071 2.160466 5.553500 6
 3.827495 2.795848 6.623304 6
 3.295975 2.916973 6.212915 6
 4.893626 1.277357 6.170953 6
 4.780706 1.288361 6.069036 6
 4.807293 1.166631 5.973897 6
 5.358227 2.687617 8.045808 6
 5.303451 2.895233 8.198647 6
 5.403417 2.797689 8.201073 6
 5.429600 2.915470 8.345039 6
 4.682758 1.491060 6.173782 6
 4.663811 1.351062 6.014842 6
 3.837439 2.919240 6.756645 6
 3.739827 2.848954 6.588740 6
 3.659046 2.917655 6.576663 6
 5.004983 1.311464 6.316417 6
 4.225101 2.304498 6.529560 6
 4.921088 1.717341 6.638391 6
 4.409590 2.128758 6.538307 6
 4.823249 1.882537 6.705744 6
 5.300817 2.774872 8.075651 6
 3.152739 2.636584 5.789292 6
 5.232052 1.265720 6.497742 6
 5.404268 1.122500 6.526743 6
 4.683551 2.651215 7.334725 6
 5.372931 2.074364 7.447263 6
 5.278401 2.024982 7.303348 6
 5.416706 1.952760 7.369431 6
 3.940217 2.293453 6.233628 6
 5.148560 2.706254 7.854777 6
 4.555039 3.463412 8.018422 6
 4.499074 3.366894 7.865937 6
 3.942056 1.661629 5.603645 6
 4.292946 3.352727 7.645646 6
 4.196562 3.299059 7.495589 6
 4.326914 3.215930 7.542812 6
 5.198067 2.804463 8.002493 6
 4.693324 1.835843 6.529130 6
 5.174839 2.619743 7.794547 6
 5.468201 1.238726 6.706902 6
 4.363525 2.028943 6.392424 6
 3.180450 3.215299 6.395722 6
 3.155227 3.341714 6.496916 6
 5.274411 1.744259 7.018635 6
 5.348793 1.834921 7.183679 6
 5.279668 1.913752 7.193382 6
 3.204031 3.102371 6.306373 6
 3.623500 2.212112 5.835571 6
 4.185935 3.189254 7.375156 6
 3.226219 2.342403 5.568585 6
 3.319385 2.425381 5.744730 6
 4.697741 1.235568 5.933282 6
 5.479326 2.095993 7.575284 6
 4.767579 2.825063 7.592606 6
 3.102443 2.417721 5.520127 6
 4.871843 2.202187 7.073989 6
 3.432795 1.920420 5.353177 6
 5.525003 2.804276 8.329243 6
 4.244239 2.651063 6.895260 6
 5.373013 3.032829 8.405808 6
 4.623531 1.736114 6.359605 6
 3.607256 2.092462 5.699677 6
 4.637472 1.933982 6.571412 6
 4.827893 1.769695 6.597545 6
 4.735635 1.704167 6.439763 6
 4.823543 1.530825 6.354334 6
 4.799692 1.398689 6.198350 6
 4.694332 1.602949 6.297243 6
 3.304002 2.226061 5.530027 6
 3.199289 2.221692 5.420944 6
 4.960206 1.506675 6.466846 6
 3.609040 2.999769 6.608771 6
 3.346754 2.327696 5.674414 6
 4.396381 3.339750 7.736100 6
 2.998208 3.041924 6.040107 6
 3.083927 3.128006 6.211907 6
 4.540840 1.979222 6.520026 6
 4.444899 3.150003 7.594869 6
 4.908827 1.410845 6.319638 6
 4.829906 1.649870 6.479736 6
 5.195613 2.110418 7.305992 6
 5.169352 1.977927 7.147245 6
 3.296390 2.111793 5.408148 6
 4.936807 1.614838 6.551607 6
 4.533991 1.348814 5.882775 6
 3.335945 1.880307 5.216216 6
 5.213384 1.838588 7.051936 6
 4.256149 3.096748 7.352863 6
 4.453945 2.031813 6.485720 6
 4.223198 3.429797 7.652967 6
 2.872922 3.056670 5.929570 6
 5.242271 2.693950 7.936184 6
 4.872369 2.513663 7.385997 6
 2.984742 2.359340 5.344051 6
 3.320478 1.980983 5.301424 6
 5.306698 2.150501 7.457166 6
 5.410939 2.180963 7.591869 6
 4.446567 3.471965 7.918505 6
 3.956628 1.481164 5.437757 6
 4.070376 1.461076 5.531416 6
 4.006957 1.578603 5.585522 6
 5.434222 0.993871 6.428069 6
 4.334121 3.451462 7.785556 6
 1 2 3 
 4 1 3 
 5 6 7 
 6 8 7 
 9 10 11 
 12 13 14 
 15 16 17 
 18 19 20 
 21 22 23 
 24 25 26 
 27 28 29 
 15 30 16 
 14 13 31 
 32 33 34 
 35 32 34 
 36 37 38 
 39 40 41 
 42 27 29 
 43 44 45 
 26 25 46 
 47 48 49 
 43 50 44 
 39 41 51 
 52 24 8 
 52 3 2 
 53 54 55 
 56 57 58 
 59 60 61 
 62 61 60 
 63 64 48 
 37 65 38 
 55 54 66 
 67 68 69 
 53 55 70 
 71 66 54 
 72 73 74 
 75 74 73 
 76 77 78 
 55 79 70 
 80 81 82 
 83 81 80 
 76 84 77 
 35 85 86 
 52 87 24 
 88 89 90 
 91 90 89 
 47 49 92 
 18 21 19 
 93 81 94 
 95 50 96 
 31 13 30 
 52 97 87 
 73 96 50 
 98 99 100 
 18 20 101 
 102 103 104 
 105 106 107 
 95 96 19 
 108 109 110 
 111 79 112 
 106 90 107 
 37 113 65 
 72 65 113 
 108 114 109 
 115 17 16 
 116 117 118 
 119 120 121 
 10 34 33 
 102 104 82 
 122 123 124 
 94 81 125 
 126 3 5 
 127 128 2 
 15 129 30 
 130 118 117 
 131 41 40 
 62 16 30 
 98 132 133 
 67 69 134 
 135 136 137 
 36 137 136 
 127 138 139 
 140 141 142 
 143 142 141 
 46 25 144 
 145 146 147 
 31 147 146 
 62 148 61 
 149 150 151 
 152 86 153 
 146 154 14 
 155 13 12 
 156 91 89 
 56 58 157 
 149 151 158 
 159 160 70 
 161 54 162 
 119 163 164 
 165 166 167 
 168 166 165 
 169 170 171 
 111 171 170 
 42 172 27 
 122 92 49 
 156 173 91 
 174 139 175 
 108 161 162 
 174 157 121 
 58 121 157 
 15 168 147 
 28 176 29 
 72 96 73 
 70 160 53 
 111 112 171 
 31 30 129 
 7 8 177 
 109 178 179 
 62 30 180 
 181 182 183 
 36 184 37 
 71 106 99 
 126 185 3 
 186 187 188 
 83 125 81 
 189 172 42 
 119 190 120 
 191 87 97 
 192 193 194 
 195 196 80 
 83 80 196 
 197 27 172 
 189 137 38 
 93 94 198 
 95 44 50 
 139 138 175 
 199 200 201 
 31 146 14 
 116 42 29 
 46 144 202 
 122 49 134 
 67 134 49 
 132 203 133 
 189 38 65 
 204 205 55 
 115 16 60 
 62 60 16 
 181 183 206 
 174 207 139 
 2 128 97 
 165 167 69 
 68 165 69 
 192 208 193 
 140 142 209 
 56 209 142 
 111 170 57 
 199 210 45 
 127 139 211 
 10 33 11 
 75 73 212 
 189 213 137 
 4 3 185 
 214 34 215 
 35 216 85 
 217 124 123 
 52 6 3 
 195 179 178 
 43 212 50 
 119 164 190 
 218 219 220 
 98 100 221 
 20 19 96 
 152 222 223 
 18 224 21 
 225 4 226 
 186 170 227 
 169 227 170 
 226 4 228 
 122 134 123 
 98 229 99 
 183 230 206 
 88 90 110 
 214 215 78 
 88 231 232 
 56 159 57 
 111 57 159 
 145 147 168 
 233 234 232 
 204 235 184 
 10 215 34 
 204 184 205 
 112 184 236 
 105 237 106 
 63 238 239 
 240 239 238 
 241 32 242 
 243 141 228 
 244 220 219 
 218 132 219 
 245 104 103 
 186 246 187 
 204 55 247 
 189 65 248 
 249 250 251 
 35 34 216 
 71 161 106 
 63 252 64 
 43 45 210 
 73 50 212 
 55 205 79 
 253 254 255 
 241 33 32 
 116 29 117 
 7 177 256 
 257 256 177 
 258 101 259 
 260 259 101 
 149 77 84 
 249 153 261 
 102 82 81 
 71 99 229 
 143 141 262 
 263 78 77 
 233 232 231 
 196 264 125 
 265 77 158 
 149 158 77 
 36 38 137 
 253 266 254 
 135 137 267 
 152 268 86 
 24 87 25 
 174 175 209 
 269 242 223 
 232 270 89 
 89 270 156 
 271 272 273 
 43 210 212 
 143 274 142 
 56 157 209 
 68 275 145 
 61 276 277 
 36 236 184 
 165 68 145 
 278 206 230 
 279 280 281 
 115 193 173 
 145 282 146 
 253 146 282 
 83 196 125 
 265 198 283 
 67 284 68 
 53 162 54 
 243 228 264 
 67 49 64 
 48 64 49 
 85 261 86 
 269 285 242 
 228 286 264 
 287 288 40 
 289 9 290 
 291 273 272 
 10 289 215 
 174 121 120 
 197 172 292 
 258 229 133 
 98 133 229 
 186 293 170 
 294 219 132 
 258 247 229 
 115 194 193 
 294 281 280 
 241 242 285 
 135 295 296 
 257 202 297 
 271 273 298 
 169 236 136 
 15 299 168 
 140 209 175 
 243 262 141 
 53 160 162 
 140 226 141 
 214 216 34 
 137 213 267 
 58 57 293 
 145 168 165 
 109 179 110 
 135 300 295 
 93 301 81 
 102 81 301 
 143 160 274 
 105 107 193 
 91 193 107 
 72 74 65 
 167 166 234 
 119 302 163 
 15 147 129 
 135 296 136 
 111 159 70 
 143 162 160 
 254 303 255 
 152 223 268 
 115 173 17 
 10 9 289 
 76 78 215 
 90 304 110 
 253 305 154 
 218 220 22 
 7 306 5 
 186 188 307 
 106 237 99 
 283 198 308 
 119 121 188 
 229 247 66 
 98 221 132 
 294 132 221 
 126 5 306 
 105 193 208 
 241 11 33 
 265 283 309 
 310 309 283 
 311 256 312 
 257 312 256 
 7 313 306 
 56 274 159 
 112 236 171 
 314 295 315 
 108 162 114 
 8 26 177 
 111 70 79 
 174 120 207 
 93 198 158 
 265 158 198 
 169 171 236 
 214 316 216 
 85 216 316 
 153 86 261 
 88 232 89 
 20 317 101 
 245 134 69 
 265 309 77 
 263 77 309 
 260 101 317 
 253 154 146 
 131 40 288 
 218 203 132 
 253 255 305 
 195 80 231 
 233 231 80 
 58 307 121 
 155 148 180 
 62 180 148 
 143 262 114 
 52 2 97 
 233 82 104 
 126 306 283 
 75 292 172 
 127 2 1 
 258 133 101 
 18 101 133 
 314 318 295 
 37 184 235 
 116 213 42 
 279 281 319 
 217 123 301 
 91 107 90 
 189 42 213 
 106 304 90 
 76 215 289 
 39 320 321 
 71 54 161 
 126 322 185 
 24 26 8 
 197 321 320 
 52 8 6 
 91 173 193 
 59 61 277 
 112 205 184 
 59 323 60 
 85 324 261 
 59 319 281 
 156 17 173 
 301 123 103 
 311 325 313 
 109 114 262 
 287 212 210 
 326 150 327 
 149 327 150 
 56 142 274 
 314 315 328 
 169 136 296 
 311 316 329 
 36 136 236 
 116 118 267 
 93 158 151 
 108 110 304 
 30 13 180 
 257 177 330 
 88 179 231 
 199 288 210 
 331 163 302 
 115 60 194 
 291 327 332 
 35 86 268 
 192 281 333 
 294 333 281 
 159 274 160 
 112 79 205 
 3 6 5 
 156 299 17 
 95 23 44 
 257 330 202 
 311 329 325 
 254 252 239 
 327 84 332 
 46 202 330 
 181 120 190 
 63 239 252 
 257 250 312 
 311 313 256 
 311 312 324 
 170 293 57 
 168 299 166 
 131 288 201 
 334 125 264 
 177 26 330 
 310 306 313 
 244 219 280 
 46 330 26 
 244 280 335 
 39 51 336 
 174 209 157 
 143 114 162 
 311 324 316 
 76 289 332 
 31 129 147 
 240 303 239 
 337 64 252 
 197 292 321 
 156 166 299 
 249 261 324 
 100 99 237 
 334 185 322 
 243 196 178 
 195 178 196 
 242 32 268 
 257 297 250 
 233 104 234 
 18 133 203 
 234 166 270 
 217 151 150 
 135 118 300 
 167 234 338 
 28 336 176 
 100 208 333 
 192 333 208 
 85 316 324 
 245 123 134 
 35 268 32 
 130 339 300 
 155 180 13 
 310 283 306 
 94 308 198 
 192 323 281 
 59 281 323 
 195 231 179 
 287 40 321 
 310 313 325 
 93 151 301 
 39 336 320 
 191 97 128 
 140 175 138 
 15 17 299 
 21 224 22 
 218 22 224 
 28 320 336 
 245 69 338 
 242 268 223 
 314 246 227 
 187 340 302 
 232 234 270 
 127 1 225 
 140 138 225 
 100 333 221 
 294 221 333 
 127 211 128 
 121 307 188 
 251 250 297 
 4 286 228 
 186 227 246 
 130 300 118 
 60 323 194 
 126 283 308 
 187 302 188 
 47 341 342 
 233 80 82 
 164 182 190 
 343 277 276 
 141 226 228 
 344 345 346 
 191 346 345 
 139 206 211 
 278 211 206 
 326 124 150 
 217 150 124 
 71 229 66 
 88 110 179 
 47 92 341 
 243 178 262 
 109 262 178 
 7 256 313 
 291 290 273 
 116 267 213 
 95 19 23 
 21 23 19 
 156 270 166 
 145 275 282 
 337 282 275 
 169 318 227 
 278 346 128 
 191 128 346 
 140 225 226 
 4 185 286 
 75 172 248 
 314 227 318 
 337 266 282 
 253 282 266 
 326 327 272 
 269 223 222 
 249 312 250 
 287 292 212 
 294 280 219 
 75 248 74 
 326 92 124 
 122 124 92 
 249 324 312 
 127 225 138 
 4 225 1 
 279 335 280 
 291 332 290 
 289 290 332 
 187 328 340 
 278 128 211 
 234 104 338 
 217 301 151 
 295 318 296 
 181 190 182 
 334 286 185 
 243 264 196 
 278 230 346 
 344 346 230 
 287 321 292 
 214 329 316 
 291 272 327 
 149 84 327 
 167 338 69 
 135 267 118 
 191 345 87 
 181 207 120 
 263 329 78 
 214 78 329 
 269 222 347 
 287 210 288 
 337 284 64 
 67 64 284 
 245 338 104 
 331 302 340 
 75 212 292 
 39 321 40 
 314 328 246 
 258 259 247 
 334 264 286 
 186 307 293 
 58 293 307 
 279 348 335 
 218 224 203 
 199 201 288 
 263 325 329 
 102 301 103 
 119 188 302 
 310 325 309 
 263 309 325 
 68 284 275 
 192 194 323 
 279 319 348 
 343 348 319 
 326 272 341 
 100 237 208 
 105 208 237 
 254 266 252 
 334 322 125 
 94 125 322 
 187 246 328 
 245 103 123 
 204 247 259 
 55 66 247 
 337 252 266 
 169 296 318 
 271 341 272 
 189 248 172 
 337 275 284 
 271 298 342 
 271 342 341 
 181 206 207 
 18 203 224 
 72 317 96 
 20 96 317 
 65 74 248 
 254 239 303 
 326 341 92 
 197 320 27 
 28 27 320 
 139 207 206 
 260 113 235 
 59 277 319 
 343 319 277 
 76 332 84 
 106 161 304 
 108 304 161 
 37 235 113 
 260 317 113 
 126 308 322 
 94 322 308 
 260 235 259 
 72 113 317 
 204 259 235 
