TITLE      =  "2D FE Unstructured grid data" 
VARIABLES = "X", "Y", "U", "Dom" 
ZONE T="P1", F=FEPOINT, N= 280 E= 493  ET=TRIANGLE 
 1.305696 7.883720 9.189465 3
 1.208009 7.992225 9.200290 3
 1.205268 7.860732 9.066051 3
 0.586217 8.671837 9.258081 3
 0.717139 8.653090 9.370265 3
 0.688054 8.781419 9.469504 3
 0.510559 7.108503 7.619085 3
 0.395163 7.165545 7.560726 3
 0.409375 7.016966 7.426356 3
 1.556666 6.985476 8.542210 3
 1.596790 6.824622 8.421479 3
 1.680047 6.992041 8.672157 3
 1.753950 6.896599 8.650626 3
 0.559112 6.615945 7.175080 3
 0.663739 6.708256 7.372027 3
 0.514937 6.747599 7.262556 3
 0.302012 7.781382 8.083406 3
 0.448479 7.727332 8.175836 3
 0.365202 7.918355 8.283570 3
 0.518228 7.867599 8.385852 3
 1.786778 7.275660 9.062510 3
 1.840102 7.137749 8.977927 3
 1.913435 7.227174 9.140690 3
 1.353558 7.981986 9.335598 3
 0.000000 8.472222 8.472222 3
 0.000000 8.333333 8.333333 3
 0.166292 8.423943 8.590246 3
 0.206973 7.973966 8.180943 3
 0.290860 8.070413 8.361284 3
 1.499858 7.947772 9.447686 3
 1.398136 7.838314 9.236504 3
 0.000000 8.194445 8.194445 3
 0.133506 8.090914 8.224428 3
 0.127202 8.260216 8.387422 3
 1.674321 7.205916 8.880305 3
 0.577212 8.273679 8.850922 3
 0.521991 8.149955 8.671970 3
 0.693256 8.164474 8.857759 3
 0.812300 7.631135 8.443473 3
 0.853759 7.789952 8.643740 3
 0.733534 7.748320 8.481885 3
 0.540023 7.005441 7.545487 3
 0.304373 6.188498 6.492881 3
 0.458075 6.124873 6.582965 3
 0.439970 6.285912 6.725897 3
 0.000000 6.805555 6.805555 3
 0.124206 6.674959 6.799171 3
 0.168758 6.780949 6.949711 3
 0.000000 8.611111 8.611111 3
 0.099357 8.541667 8.641029 3
 0.149972 8.713051 8.863031 3
 0.354021 7.393651 7.747689 3
 0.435442 7.313666 7.749125 3
 0.446700 7.459182 7.905904 3
 0.738248 7.897949 8.636225 3
 0.613699 7.946341 8.560066 3
 0.604607 7.778429 8.383062 3
 0.402159 6.651262 7.053439 3
 0.624954 8.078673 8.703659 3
 0.210358 8.569089 8.779451 3
 0.309136 8.508445 8.817591 3
 0.578731 7.660341 8.239097 3
 0.515410 7.559653 8.075088 3
 0.400869 7.591715 7.992604 3
 1.551207 7.285677 8.836955 3
 1.564610 7.186412 8.751088 3
 0.339019 8.387820 8.726858 3
 0.758679 8.431259 9.189976 3
 0.733248 8.305851 9.039137 3
 0.866699 8.310026 9.176760 3
 0.267082 8.277399 8.544497 3
 0.413076 8.244780 8.657873 3
 1.630993 7.365955 8.997012 3
 1.716988 6.784972 8.502038 3
 0.607504 6.824253 7.431780 3
 0.247466 7.171700 7.419175 3
 0.311634 7.287780 7.599430 3
 0.190436 7.302215 7.492661 3
 1.500886 7.797293 9.298247 3
 0.950514 7.675474 8.626025 3
 0.124253 7.204134 7.328394 3
 0.616477 8.393044 9.009552 3
 0.473950 8.361743 8.835716 3
 0.858725 8.722531 9.581292 3
 0.795406 8.565123 9.360573 3
 0.908448 8.586155 9.494640 3
 0.000000 8.750000 8.750000 3
 0.883070 7.929007 8.812119 3
 0.997349 7.815324 8.812715 3
 1.146914 7.747867 8.894830 3
 1.091823 7.907299 8.999169 3
 1.258960 7.182138 8.441154 3
 1.125977 7.093374 8.219399 3
 1.247292 7.029595 8.276936 3
 0.546415 8.787341 9.333785 3
 1.118547 7.236432 8.355025 3
 1.287874 8.131318 9.419246 3
 0.864869 8.475965 9.340878 3
 0.555792 6.480118 7.035934 3
 0.661663 6.433148 7.094839 3
 0.692328 6.567451 7.259810 3
 0.000000 7.777778 7.777778 3
 0.000000 7.638889 7.638889 3
 0.155138 7.724136 7.879282 3
 0.553257 7.346814 7.900096 3
 0.094249 7.569445 7.663699 3
 0.526764 8.467170 8.993959 3
 1.730406 7.084311 8.814794 3
 1.463800 6.891809 8.355678 3
 0.506783 7.991428 8.498238 3
 0.323862 6.067037 6.390907 3
 0.000000 6.666667 6.666667 3
 1.126392 6.947610 8.074054 3
 0.987395 6.885596 7.873035 3
 1.114545 6.819599 7.934190 3
 1.015840 6.738435 7.754318 3
 0.283384 7.047626 7.331017 3
 1.346684 6.950495 8.297237 3
 1.439220 7.024059 8.463343 3
 1.345919 7.083216 8.429193 3
 0.465655 6.555604 7.021280 3
 0.886363 6.750875 7.637280 3
 0.414963 8.071552 8.486530 3
 0.225961 8.181989 8.407964 3
 1.266389 7.642892 8.909343 3
 1.177508 7.507638 8.685198 3
 1.326424 7.547935 8.874421 3
 1.908202 7.358087 9.266363 3
 0.322388 8.169227 8.491632 3
 1.071089 8.570249 9.641385 3
 0.990099 8.657994 9.648138 3
 0.983326 8.514839 9.498211 3
 0.371069 6.795438 7.166523 3
 1.283737 7.430814 8.714609 3
 1.204557 7.331199 8.535808 3
 0.293526 8.784400 9.077939 3
 0.435687 8.704444 9.140152 3
 0.441780 8.860373 9.302169 3
 0.235199 7.868153 8.103360 3
 1.051147 8.044083 9.095280 3
 1.144988 8.142914 9.287951 3
 0.981902 8.191603 9.173551 3
 1.085593 8.281207 9.366843 3
 0.997649 7.156612 8.154302 3
 0.906328 7.288684 8.195048 3
 0.844803 7.132699 7.977535 3
 1.390459 7.691524 9.082041 3
 1.501852 7.678027 9.179938 3
 0.739847 7.167933 7.907807 3
 0.668488 7.268610 7.937125 3
 0.630688 7.118028 7.748744 3
 1.090806 7.389845 8.480697 3
 0.795127 8.045098 8.840257 3
 0.270356 6.722905 6.993270 3
 0.241087 6.594317 6.835414 3
 0.756333 7.376606 8.132970 3
 0.669728 7.526626 8.196379 3
 0.642332 7.395194 8.037555 3
 0.695885 8.017605 8.713525 3
 0.832334 8.181274 9.013642 3
 0.532266 7.220194 7.752481 3
 0.563854 7.457312 8.021193 3
 1.946103 7.028942 8.975128 3
 1.886681 6.919601 8.806356 3
 2.054027 6.924795 8.978908 3
 0.000000 7.361111 7.361111 3
 0.081500 7.298603 7.380108 3
 0.115371 7.430360 7.545735 3
 0.636902 8.530614 9.167546 3
 0.208464 7.574777 7.783251 3
 0.250566 7.417533 7.668109 3
 0.323471 7.516419 7.839906 3
 0.362887 6.551648 6.914547 3
 0.814496 7.491768 8.306302 3
 0.000000 6.250000 6.250000 3
 0.000000 6.111111 6.111111 3
 0.144028 6.180555 6.324586 3
 0.000000 7.500000 7.500000 3
 0.596528 6.329490 6.926044 3
 0.481959 6.387649 6.869627 3
 0.311214 6.299680 6.610905 3
 0.113225 6.883154 6.996380 3
 0.000000 5.972222 5.972222 3
 0.116808 5.897958 6.014752 3
 0.111832 6.061011 6.172847 3
 0.000000 7.083333 7.083333 3
 0.141202 7.079720 7.220927 3
 0.390550 8.588207 8.978770 3
 0.499662 8.572626 9.072312 3
 1.364042 6.804653 8.168757 3
 0.790186 7.268943 8.059158 3
 0.303171 7.658401 7.961587 3
 0.000000 7.222222 7.222222 3
 0.000000 8.055555 8.055555 3
 1.490665 6.790922 8.281654 3
 0.598355 8.906145 9.504528 3
 1.155098 7.636156 8.791307 3
 0.984513 8.316355 9.300915 3
 0.929986 7.017158 7.947180 3
 0.862778 6.878037 7.740852 3
 0.804398 6.970953 7.775385 3
 0.115023 7.874085 7.989112 3
 0.996799 7.950277 8.947111 3
 0.930958 7.556477 8.487472 3
 1.463472 7.365602 8.829135 3
 1.532278 7.479693 9.012035 3
 0.664117 6.992033 7.656178 3
 0.692460 6.894339 7.586828 3
 0.768840 6.814992 7.583866 3
 0.799684 6.671224 7.470942 3
 0.323504 6.922027 7.245542 3
 0.479855 6.892079 7.371950 3
 0.736771 7.076329 7.813128 3
 1.040813 7.011794 8.052649 3
 1.444627 6.706367 8.151058 3
 1.333971 6.646914 7.980943 3
 1.478751 6.592216 8.071033 3
 0.299041 8.656504 8.955554 3
 1.334587 7.310613 8.645259 3
 0.220288 5.997429 6.217721 3
 1.675653 7.515348 9.191063 3
 1.761743 7.409687 9.171495 3
 2.020253 7.267929 9.288271 3
 0.920541 7.459746 8.380329 3
 1.396366 7.460019 8.856445 3
 1.021153 7.292825 8.314024 3
 0.683349 7.644981 8.328361 3
 1.288095 7.776429 9.064577 3
 2.076327 7.058541 9.134953 3
 1.429399 8.087277 9.516726 3
 0.953595 8.408203 9.361839 3
 1.236438 6.883706 8.120195 3
 0.000000 7.916667 7.916667 3
 1.451279 7.567094 9.018430 3
 0.352246 6.389323 6.741587 3
 1.542193 6.684094 8.226355 3
 0.114363 6.303110 6.417479 3
 0.215323 6.379928 6.595257 3
 0.286639 6.485198 6.771850 3
 0.145565 6.498655 6.644227 3
 0.000000 6.527778 6.527778 3
 0.101550 6.405153 6.506706 3
 0.201777 6.955204 7.156986 3
 0.241448 6.843279 7.084737 3
 1.644509 6.699808 8.344389 3
 1.456548 7.228272 8.684887 3
 1.516216 7.100515 8.616801 3
 0.000000 6.388889 6.388889 3
 0.220797 6.099459 6.320261 3
 0.217860 6.270355 6.488221 3
 1.226046 6.755610 7.981710 3
 1.420698 7.120935 8.541692 3
 1.071071 6.610753 7.681870 3
 1.205009 6.635832 7.840892 3
 1.128930 6.714970 7.843950 3
 1.066928 8.429412 9.496385 3
 0.923397 8.056890 8.980330 3
 1.996131 7.145063 9.141273 3
 0.831033 6.551325 7.382393 3
 0.084081 6.578643 6.662724 3
 0.000000 5.833333 5.833333 3
 1.049190 7.700259 8.749496 3
 0.935367 6.645044 7.580452 3
 0.418895 6.471860 6.890774 3
 1.575904 7.604143 9.180113 3
 0.000000 6.944445 6.944445 3
 0.093535 6.987447 7.080983 3
 1.824299 6.803420 8.627796 3
 1.031805 7.484908 8.516755 3
 1.056095 7.595831 8.651966 3
 1.363342 7.185035 8.548437 3
 0.418376 8.475342 8.893729 3
 0.981706 7.387838 8.369581 3
 0.857799 7.383876 8.241709 3
 0.092829 7.983811 8.076643 3
 0.575413 6.917888 7.493325 3
 1.811099 7.010266 8.821445 3
 0.957793 6.520961 7.478797 3
 1.623212 7.089769 8.713056 3
 1.577821 6.558721 8.136608 3
 1 2 3 
 4 5 6 
 7 8 9 
 10 11 12 
 13 12 11 
 14 15 16 
 17 18 19 
 20 19 18 
 21 22 23 
 24 2 1 
 25 26 27 
 28 19 29 
 30 24 31 
 32 33 34 
 21 35 22 
 36 37 38 
 39 40 41 
 7 9 42 
 43 44 45 
 46 47 48 
 49 50 51 
 52 53 54 
 55 56 57 
 14 16 58 
 59 38 37 
 60 27 61 
 62 18 63 
 64 63 18 
 65 66 35 
 67 61 27 
 68 69 70 
 67 71 72 
 73 65 35 
 13 11 74 
 75 16 15 
 76 77 78 
 30 31 79 
 39 80 40 
 76 78 81 
 36 82 83 
 84 85 86 
 87 49 51 
 55 40 88 
 89 90 91 
 3 91 90 
 92 93 94 
 4 6 95 
 84 5 85 
 92 96 93 
 97 2 24 
 68 70 98 
 99 100 101 
 55 57 41 
 102 103 104 
 53 105 54 
 103 106 104 
 107 83 82 
 108 22 35 
 21 73 35 
 10 109 11 
 84 6 5 
 59 37 110 
 55 41 40 
 43 111 44 
 52 77 53 
 46 112 47 
 113 114 115 
 116 115 114 
 9 8 117 
 118 119 120 
 118 120 94 
 14 58 121 
 116 114 122 
 123 29 19 
 124 34 33 
 125 126 127 
 21 23 128 
 72 71 129 
 130 131 132 
 133 58 16 
 14 99 101 
 60 51 50 
 134 126 135 
 60 50 27 
 136 137 138 
 86 132 131 
 28 139 19 
 140 141 142 
 143 142 141 
 144 145 146 
 147 148 79 
 149 150 151 
 25 27 50 
 26 34 27 
 152 135 126 
 55 88 153 
 89 88 40 
 133 154 58 
 155 58 154 
 156 157 158 
 153 38 159 
 76 117 8 
 160 142 70 
 150 161 151 
 62 63 157 
 162 157 63 
 163 164 165 
 166 167 168 
 123 110 37 
 31 147 79 
 4 169 5 
 170 168 171 
 67 27 71 
 170 171 172 
 155 173 58 
 156 174 157 
 170 104 106 
 175 176 177 
 178 166 168 
 36 72 37 
 36 83 72 
 123 37 72 
 179 180 45 
 67 72 83 
 43 45 181 
 46 48 182 
 183 184 185 
 186 187 81 
 188 189 137 
 4 137 189 
 118 190 109 
 145 191 146 
 17 104 192 
 170 192 104 
 193 186 81 
 84 86 131 
 123 72 129 
 20 57 56 
 32 194 33 
 109 190 195 
 196 138 95 
 160 38 153 
 125 197 126 
 142 198 70 
 92 135 96 
 68 85 169 
 59 159 38 
 114 199 200 
 201 200 199 
 5 169 85 
 102 104 202 
 36 38 69 
 162 54 105 
 113 94 93 
 196 95 6 
 62 57 18 
 89 203 88 
 39 174 204 
 144 93 96 
 205 73 206 
 201 207 208 
 75 15 209 
 210 209 15 
 9 211 212 
 133 212 211 
 20 18 57 
 201 213 207 
 134 127 126 
 78 168 167 
 156 150 191 
 149 191 150 
 113 214 114 
 215 216 217 
 140 2 141 
 201 199 146 
 36 69 82 
 17 139 104 
 17 192 18 
 64 18 192 
 60 218 51 
 136 51 218 
 92 219 135 
 220 185 184 
 89 40 80 
 28 29 33 
 124 33 29 
 221 73 222 
 21 222 73 
 23 223 128 
 224 204 174 
 162 158 157 
 134 219 225 
 205 225 219 
 124 129 71 
 201 146 213 
 205 206 225 
 210 122 209 
 140 91 2 
 144 226 145 
 48 47 154 
 155 154 47 
 39 41 227 
 125 228 90 
 3 90 228 
 53 77 8 
 163 165 229 
 221 206 73 
 160 70 69 
 97 24 230 
 231 98 70 
 68 82 69 
 113 232 94 
 118 94 232 
 30 230 24 
 97 141 2 
 233 102 202 
 39 227 157 
 201 208 209 
 133 16 212 
 39 157 174 
 160 69 38 
 114 200 122 
 234 225 206 
 45 180 235 
 62 157 227 
 144 96 226 
 11 195 236 
 175 177 237 
 201 209 200 
 238 239 240 
 155 240 239 
 241 242 240 
 243 182 244 
 11 236 245 
 144 214 93 
 26 32 34 
 205 65 73 
 104 139 202 
 66 246 247 
 75 209 208 
 3 2 91 
 4 189 169 
 234 147 127 
 76 81 187 
 17 19 139 
 152 96 135 
 75 212 16 
 241 248 242 
 78 77 171 
 176 185 177 
 144 199 214 
 177 249 43 
 250 177 43 
 251 216 190 
 215 190 216 
 207 151 42 
 7 42 151 
 252 247 246 
 48 244 182 
 59 110 56 
 205 219 246 
 125 127 147 
 20 110 19 
 123 19 110 
 253 254 255 
 76 8 77 
 52 171 77 
 143 256 198 
 156 158 150 
 136 218 137 
 188 137 218 
 134 135 219 
 88 257 153 
 53 8 161 
 7 161 8 
 163 258 22 
 210 101 259 
 160 257 142 
 155 260 240 
 248 175 237 
 152 226 96 
 60 61 218 
 188 218 61 
 160 153 257 
 149 146 191 
 138 137 95 
 231 198 256 
 183 261 184 
 4 95 137 
 89 91 203 
 176 183 185 
 7 151 161 
 125 90 197 
 243 117 187 
 76 187 117 
 89 262 90 
 251 190 232 
 118 232 190 
 68 169 82 
 210 263 122 
 62 227 57 
 41 57 227 
 23 22 258 
 264 235 180 
 9 212 42 
 140 142 257 
 221 265 206 
 31 24 1 
 179 99 180 
 21 128 222 
 88 203 257 
 143 198 142 
 155 47 260 
 45 235 181 
 155 239 173 
 215 195 190 
 264 99 121 
 14 121 99 
 92 94 120 
 27 34 71 
 124 71 34 
 210 259 263 
 31 228 147 
 125 147 228 
 266 46 182 
 170 106 168 
 178 168 106 
 144 146 199 
 114 214 199 
 234 206 265 
 186 267 187 
 113 115 232 
 251 232 115 
 39 204 80 
 140 257 203 
 107 82 169 
 186 266 267 
 64 172 54 
 252 120 119 
 123 129 29 
 49 25 50 
 13 268 164 
 107 169 189 
 152 126 269 
 270 269 126 
 238 240 242 
 264 180 99 
 179 100 99 
 10 119 109 
 78 171 168 
 170 172 192 
 64 192 172 
 55 153 159 
 92 271 219 
 52 54 172 
 107 272 83 
 67 83 272 
 241 240 260 
 145 273 274 
 14 101 15 
 210 15 101 
 103 178 106 
 113 93 214 
 233 202 275 
 28 275 202 
 75 276 212 
 194 233 275 
 108 12 277 
 149 213 146 
 270 126 197 
 194 275 33 
 278 253 263 
 116 263 253 
 28 33 275 
 13 277 12 
 209 122 200 
 243 187 267 
 248 237 242 
 219 271 246 
 251 254 216 
 130 132 256 
 231 256 132 
 220 111 249 
 112 241 260 
 116 122 263 
 10 247 119 
 23 258 223 
 163 229 258 
 140 203 91 
 163 277 164 
 52 172 171 
 166 193 167 
 238 235 239 
 270 80 204 
 118 109 119 
 28 202 139 
 13 74 268 
 64 54 63 
 231 70 198 
 163 22 277 
 43 181 250 
 224 274 273 
 251 115 255 
 116 255 115 
 13 164 277 
 89 80 262 
 188 272 189 
 145 226 273 
 215 236 195 
 108 277 22 
 11 245 74 
 156 191 274 
 145 274 191 
 270 262 80 
 116 253 255 
 278 263 259 
 234 148 147 
 264 239 235 
 10 12 279 
 108 279 12 
 107 189 272 
 20 56 110 
 238 242 237 
 86 98 132 
 234 127 225 
 264 173 239 
 162 63 54 
 234 265 148 
 238 181 235 
 66 65 246 
 205 246 65 
 252 119 247 
 11 109 195 
 238 237 250 
 243 244 211 
 243 211 117 
 9 117 211 
 207 213 151 
 156 274 174 
 224 174 274 
 112 260 47 
 238 250 181 
 270 197 262 
 90 262 197 
 177 185 249 
 220 249 185 
 124 29 129 
 177 250 237 
 31 1 228 
 3 228 1 
 188 61 272 
 243 267 182 
 193 81 167 
 231 132 98 
 134 225 127 
 252 246 271 
 280 245 236 
 55 159 56 
 67 272 61 
 59 56 159 
 48 154 244 
 133 244 154 
 78 167 81 
 270 204 269 
 266 182 267 
 108 35 279 
 66 279 35 
 280 236 217 
 224 269 204 
 66 247 279 
 215 217 236 
 149 151 213 
 207 276 208 
 75 208 276 
 86 85 98 
 264 121 173 
 58 173 121 
 53 161 105 
 150 105 161 
 207 42 276 
 212 276 42 
 43 249 111 
 251 255 254 
 152 273 226 
 152 269 273 
 224 273 269 
 133 211 244 
 68 98 85 
 150 158 105 
 162 105 158 
 10 279 247 
 252 271 120 
 92 120 271 
