TITLE      =  "2D FE Unstructured grid data" 
VARIABLES = "X", "Y", "U", "Dom" 
ZONE T="P1", F=FEPOINT, N= 290 E= 508  ET=TRIANGLE 
 5.257092 4.951127 10.208228 13
 5.213462 4.793371 10.006840 13
 5.330429 4.858052 10.188482 13
 5.151765 4.907310 10.059081 13
 4.723909 5.068506 9.792433 13
 4.847394 4.979242 9.826650 13
 4.890870 5.132880 10.023767 13
 5.017903 4.996035 10.013950 13
 4.970822 4.493345 9.464166 13
 5.151458 4.531467 9.682927 13
 5.054547 4.627533 9.682084 13
 6.070206 3.682619 9.752812 13
 6.214737 3.731762 9.946487 13
 6.058446 3.837669 9.896107 13
 6.213589 3.874769 10.088352 13
 4.596781 5.505511 10.102330 13
 4.767055 5.487215 10.254301 13
 4.696230 5.614021 10.310280 13
 5.782885 4.915845 10.698722 13
 5.654538 5.009116 10.663651 13
 5.613523 4.876764 10.490286 13
 5.510816 4.964171 10.474987 13
 5.056756 4.851300 9.908060 13
 5.088861 4.732314 9.821182 13
 5.222429 5.423650 10.646088 13
 5.284202 5.287165 10.571382 13
 5.358247 5.399813 10.758068 13
 4.770121 6.206210 10.976375 13
 4.738197 6.044947 10.783184 13
 4.844717 6.127686 10.972439 13
 5.103247 4.421588 9.524837 13
 5.087639 5.919766 11.007426 13
 5.172787 6.042550 11.215358 13
 5.027209 6.035408 11.062646 13
 5.219138 6.610251 11.829425 13
 5.205322 6.783471 11.988825 13
 5.094726 6.711517 11.806284 13
 4.741090 4.800401 9.541499 13
 4.777213 4.665328 9.442543 13
 4.865252 4.762175 9.627439 13
 4.634031 5.393753 10.027811 13
 5.977030 3.962249 9.939271 13
 5.876711 3.891672 9.768376 13
 5.146527 5.660914 10.807459 13
 5.281844 5.563485 10.845338 13
 5.260324 5.714407 10.974756 13
 5.957494 3.764695 9.722180 13
 6.506629 3.889209 10.395836 13
 6.371160 3.918404 10.289552 13
 6.453152 3.767231 10.220369 13
 5.458508 4.842330 10.300838 13
 6.206203 4.558007 10.764194 13
 6.139965 4.456416 10.596372 13
 6.238244 4.398286 10.636527 13
 5.128078 5.529068 10.657160 13
 6.318694 4.601766 10.920446 13
 6.332431 4.471969 10.804392 13
 6.436944 4.559677 10.996613 13
 5.427352 5.250156 10.677507 13
 5.711236 4.758887 10.470120 13
 4.403582 5.393932 9.797552 13
 4.367148 5.274304 9.641484 13
 4.506149 5.309174 9.815361 13
 4.519849 5.664965 10.184854 13
 4.478020 5.792209 10.270276 13
 4.405655 5.647001 10.052695 13
 5.330009 6.659079 11.989117 13
 5.589419 4.442449 10.031868 13
 5.690715 4.356841 10.047548 13
 5.711939 4.496269 10.208200 13
 5.812953 4.400337 10.213282 13
 4.725826 4.925068 9.650906 13
 6.315060 3.798978 10.114030 13
 5.057843 6.603064 11.660945 13
 5.944004 4.749156 10.693153 13
 5.838029 4.800569 10.638593 13
 5.821872 4.670084 10.491957 13
 6.136762 4.092844 10.229596 13
 6.245292 4.146565 10.391852 13
 6.110779 4.221756 10.332527 13
 6.244764 4.271516 10.516275 13
 5.546039 4.041147 9.587178 13
 5.645875 3.954549 9.600407 13
 5.657291 4.098102 9.755385 13
 5.054564 6.800837 11.855445 13
 5.076235 6.911542 11.987819 13
 5.915690 4.628152 10.543834 13
 5.452739 5.522282 10.975030 13
 5.566566 4.755843 10.322412 13
 4.633508 5.739126 10.372677 13
 4.783075 5.736701 10.519803 13
 5.307677 5.989727 11.297419 13
 5.244080 6.136095 11.380193 13
 4.800302 5.598439 10.398780 13
 4.974689 6.722596 11.697329 13
 4.848577 6.738701 11.587326 13
 4.914988 6.591507 11.506542 13
 4.793907 6.642322 11.436279 13
 4.559124 5.076210 9.635358 13
 4.616161 4.974397 9.590579 13
 4.886099 5.298410 10.184527 13
 4.771914 5.224289 9.996223 13
 4.928779 4.868985 9.797778 13
 5.479351 5.804839 11.284201 13
 5.619124 5.899089 11.518219 13
 5.482297 5.971089 11.453393 13
 5.635381 6.053502 11.688893 13
 5.938301 3.649847 9.588131 13
 6.056940 3.532387 9.589306 13
 4.623034 6.302894 10.925982 13
 4.613519 6.446199 11.059771 13
 4.483908 6.449684 10.933653 13
 4.440813 5.201459 9.642301 13
 4.882155 5.653976 10.536159 13
 5.004355 5.621849 10.626225 13
 4.936058 5.781611 10.717699 13
 5.055205 5.730065 10.785297 13
 5.162831 5.003466 10.166306 13
 4.650256 5.168060 9.818336 13
 5.338184 6.231318 11.569524 13
 5.399867 6.102345 11.502220 13
 5.459824 6.216411 11.676249 13
 5.580335 6.184878 11.765219 13
 5.550116 6.335684 11.885806 13
 5.135509 6.219526 11.355063 13
 5.055723 6.299394 11.355147 13
 4.986338 6.169107 11.155476 13
 4.955557 6.285827 11.241420 13
 5.396432 5.675292 11.071740 13
 5.523358 5.669412 11.192780 13
 5.322007 5.177429 10.499440 13
 4.774349 6.316844 11.091238 13
 5.106018 6.117599 11.223645 13
 5.280290 6.342507 11.622819 13
 5.411267 6.342228 11.753508 13
 5.295508 6.477823 11.773352 13
 5.448219 6.482357 11.930590 13
 5.489552 4.544328 10.033880 13
 5.448073 4.418504 9.866578 13
 5.156132 5.318573 10.474718 13
 5.669859 5.435611 11.105478 13
 5.576156 5.295096 10.871251 13
 5.721006 5.298769 11.019774 13
 6.076811 4.962896 11.039692 13
 5.911179 5.023998 10.935163 13
 5.930738 4.904496 10.835223 13
 4.965833 5.912179 10.878040 13
 6.403944 4.719996 11.123921 13
 6.012780 4.101611 10.114388 13
 4.772575 5.352796 10.125400 13
 4.897430 5.420352 10.317807 13
 5.754136 3.997911 9.752034 13
 5.877999 4.044163 9.922155 13
 5.577623 5.550125 11.127749 13
 6.485501 4.018254 10.503749 13
 6.366496 4.075804 10.442295 13
 5.804010 5.401198 11.205200 13
 4.932013 4.647442 9.579460 13
 6.236480 4.716629 10.953099 13
 5.004020 5.485520 10.489557 13
 5.105770 5.420438 10.526226 13
 5.020781 5.135246 10.156041 13
 5.535244 3.911534 9.446768 13
 5.986840 4.235795 10.222627 13
 6.207385 3.602029 9.809403 13
 5.666567 5.153465 10.820029 13
 5.531351 5.169324 10.700680 13
 5.788845 5.072317 10.861159 13
 4.979389 5.225710 10.205117 13
 5.654665 4.222553 9.877204 13
 5.793844 4.270030 10.063867 13
 4.228453 5.249140 9.477633 13
 4.349597 5.130523 9.480154 13
 5.149235 6.503205 11.652473 13
 5.611839 4.572730 10.184563 13
 5.748894 3.857811 9.606694 13
 4.836123 5.901148 10.737308 13
 6.015033 4.338188 10.353212 13
 6.133647 4.350860 10.484499 13
 6.042073 4.442723 10.484785 13
 4.771996 6.822196 11.594252 13
 4.921848 6.875056 11.796951 13
 5.126162 5.097726 10.223902 13
 5.353764 4.366374 9.720139 13
 5.331782 4.453492 9.785275 13
 5.237947 4.414595 9.652537 13
 6.103865 3.968939 10.072790 13
 5.261233 5.065129 10.326368 13
 5.372214 4.965160 10.337378 13
 5.429159 5.090853 10.520015 13
 4.701678 5.877624 10.579338 13
 5.292158 4.288077 9.580237 13
 5.233618 6.250854 11.484499 13
 5.770917 4.139910 9.910822 13
 4.888825 6.027974 10.916830 13
 5.545734 5.434110 10.979843 13
 5.721786 4.621486 10.343261 13
 5.838165 4.542286 10.380444 13
 4.593714 5.602470 10.196224 13
 5.375283 5.875870 11.251167 13
 6.248830 4.009155 10.257974 13
 5.038819 5.830047 10.868886 13
 4.982566 4.748600 9.731174 13
 4.449084 4.999966 9.449074 13
 5.466787 5.362625 10.829429 13
 5.353297 4.189147 9.542443 13
 5.444251 4.126675 9.570917 13
 5.430542 4.274333 9.704867 13
 6.330319 3.680072 10.010383 13
 5.549659 4.177384 9.727033 13
 5.267864 5.847190 11.115071 13
 5.149359 5.806612 10.955991 13
 4.701714 6.395284 11.097042 13
 5.351101 5.778658 11.129772 13
 5.193571 5.926731 11.120326 13
 5.461146 4.733736 10.194880 13
 6.441395 4.412462 10.853852 13
 6.122160 4.639272 10.761424 13
 5.557873 5.064461 10.622335 13
 5.843804 3.761670 9.605459 13
 5.809717 3.636134 9.445827 13
 4.274296 5.361598 9.635938 13
 4.867213 4.558381 9.425589 13
 4.689008 6.623161 11.312224 13
 4.802021 6.536401 11.338475 13
 5.155808 4.309731 9.465540 13
 5.223313 4.165204 9.388510 13
 4.692145 6.510069 11.202267 13
 5.373848 4.542871 9.916730 13
 5.515975 6.101072 11.617059 13
 4.818504 4.870011 9.688524 13
 5.889726 4.184255 10.073975 13
 4.650166 5.279795 9.929993 13
 4.464545 5.116072 9.580649 13
 6.475811 4.160089 10.635893 13
 5.089581 5.223879 10.313472 13
 5.208089 5.193843 10.401948 13
 4.517680 5.427602 9.945313 13
 5.345166 4.081958 9.427118 13
 5.923215 5.140003 11.063212 13
 5.802876 5.196856 10.999728 13
 5.904289 4.310095 10.214375 13
 4.460289 5.534797 9.995126 13
 4.314150 5.465457 9.779654 13
 4.337113 5.571017 9.908176 13
 5.175752 4.646007 9.821759 13
 5.560513 4.315344 9.875848 13
 5.018191 5.345380 10.363585 13
 5.627614 4.668246 10.295855 13
 6.036800 4.862010 10.898796 13
 5.821927 5.301469 11.123387 13
 4.712487 6.733693 11.446242 13
 5.608884 5.769507 11.378393 13
 5.209268 6.416811 11.626104 13
 4.598559 5.847157 10.445749 13
 4.546166 5.191502 9.737691 13
 5.102062 6.414493 11.516586 13
 5.008130 6.495294 11.503462 13
 5.298054 4.647369 9.945421 13
 5.359335 4.752727 10.112067 13
 6.354817 4.210866 10.565674 13
 6.080802 4.545942 10.626735 13
 6.075419 4.729247 10.804657 13
 5.440802 3.996083 9.436880 13
 4.894711 5.543684 10.438417 13
 4.566793 6.573065 11.139915 13
 5.729296 3.741757 9.471040 13
 6.453289 4.285913 10.739196 13
 5.263251 4.540002 9.803253 13
 5.345887 6.568316 11.914229 13
 5.907853 5.249306 11.157146 13
 5.633647 3.820791 9.454422 13
 4.901669 6.452595 11.354306 13
 4.150170 5.339636 9.489848 13
 4.203794 5.453638 9.657478 13
 5.962838 4.537652 10.500483 13
 6.345994 4.337882 10.683861 13
 4.799413 6.423173 11.222632 13
 6.557072 4.237191 10.794253 13
 6.011571 4.641583 10.653143 13
 4.984843 6.382586 11.367472 13
 5.170027 6.324827 11.494884 13
 5.927338 4.431966 10.359296 13
 5.906826 5.361221 11.268042 13
 4.620383 4.846562 9.466959 13
 4.880465 6.349662 11.230173 13
 5.413896 4.651574 10.065474 13
 5.527368 4.655096 10.182466 13
 6.546760 4.352573 10.899323 13
 4.866957 6.236947 11.103937 13
 1 2 3 
 4 2 1 
 5 6 7 
 8 7 6 
 9 10 11 
 12 13 14 
 15 14 13 
 16 17 18 
 19 20 21 
 22 21 20 
 2 23 24 
 25 26 27 
 28 29 30 
 9 31 10 
 4 23 2 
 32 33 34 
 35 36 37 
 38 39 40 
 16 41 17 
 42 43 14 
 44 45 46 
 14 43 47 
 25 27 45 
 48 49 50 
 22 51 21 
 52 53 54 
 55 45 44 
 56 57 58 
 57 52 54 
 56 52 57 
 59 27 26 
 19 21 60 
 61 62 63 
 64 65 66 
 35 67 36 
 68 69 70 
 71 70 69 
 5 72 6 
 49 73 50 
 35 37 74 
 75 76 77 
 78 79 80 
 81 80 79 
 82 83 84 
 85 36 86 
 75 77 87 
 88 45 27 
 21 51 89 
 90 18 91 
 92 93 33 
 18 94 91 
 95 96 97 
 98 97 96 
 5 99 100 
 90 65 64 
 101 102 7 
 5 7 102 
 8 6 103 
 104 105 106 
 107 106 105 
 12 108 109 
 110 111 112 
 113 63 62 
 114 115 116 
 117 116 115 
 8 4 118 
 5 119 99 
 120 121 122 
 5 100 72 
 122 123 124 
 19 60 76 
 125 126 127 
 128 127 126 
 88 129 45 
 46 45 129 
 88 130 129 
 95 97 74 
 59 26 131 
 93 121 120 
 110 28 132 
 125 133 93 
 134 135 136 
 137 136 135 
 68 138 139 
 25 140 26 
 141 142 143 
 144 145 146 
 32 34 147 
 56 58 148 
 78 80 149 
 17 150 151 
 152 43 153 
 88 154 130 
 8 23 4 
 48 155 49 
 156 49 155 
 141 143 157 
 9 11 158 
 93 133 33 
 56 148 159 
 92 121 93 
 160 161 55 
 8 162 7 
 82 163 83 
 80 164 149 
 12 109 165 
 166 142 167 
 59 167 142 
 166 20 168 
 19 168 20 
 101 7 169 
 44 117 115 
 170 171 69 
 25 45 55 
 101 151 150 
 172 173 62 
 35 74 174 
 160 55 115 
 68 175 138 
 152 84 83 
 152 176 43 
 19 146 145 
 177 116 147 
 55 44 115 
 178 179 180 
 181 96 182 
 8 118 183 
 36 85 37 
 95 74 37 
 184 185 186 
 15 187 14 
 42 14 187 
 125 127 133 
 75 146 76 
 188 189 190 
 19 145 168 
 177 191 91 
 25 55 161 
 192 184 186 
 125 93 193 
 59 131 190 
 170 194 171 
 34 127 195 
 141 196 142 
 77 197 198 
 90 64 199 
 114 91 94 
 104 106 200 
 92 200 106 
 15 49 201 
 116 202 147 
 70 198 197 
 40 158 203 
 177 29 191 
 99 204 100 
 59 190 167 
 12 14 47 
 88 27 205 
 90 91 191 
 206 207 208 
 209 13 165 
 207 210 208 
 15 201 187 
 40 203 103 
 156 201 49 
 46 211 212 
 19 76 146 
 110 132 213 
 137 135 124 
 8 103 23 
 141 154 196 
 104 214 129 
 32 215 33 
 216 89 51 
 78 187 201 
 122 124 135 
 92 106 121 
 30 195 127 
 68 70 175 
 57 217 58 
 22 190 189 
 40 39 158 
 92 211 200 
 56 159 52 
 218 52 159 
 166 219 20 
 177 91 116 
 114 116 91 
 59 142 205 
 220 221 108 
 78 149 187 
 42 187 149 
 178 80 179 
 53 180 179 
 88 205 196 
 61 222 62 
 9 158 223 
 22 219 190 
 92 215 211 
 98 224 225 
 226 227 192 
 220 47 43 
 170 210 84 
 12 47 108 
 228 225 224 
 138 229 139 
 122 230 123 
 82 84 210 
 103 6 231 
 71 69 171 
 166 167 219 
 232 153 149 
 233 41 63 
 95 182 96 
 188 190 131 
 40 103 231 
 166 143 142 
 71 198 70 
 92 33 215 
 46 214 211 
 107 230 106 
 204 234 173 
 226 192 186 
 156 155 235 
 42 149 153 
 15 73 49 
 236 237 140 
 63 41 238 
 34 33 133 
 70 197 175 
 239 206 227 
 240 241 168 
 17 41 150 
 232 164 242 
 35 174 136 
 26 140 237 
 90 199 18 
 104 200 214 
 61 243 244 
 245 244 243 
 24 246 2 
 122 121 230 
 77 198 87 
 104 129 130 
 208 247 139 
 232 242 171 
 101 150 102 
 233 102 150 
 236 140 248 
 249 175 197 
 185 139 229 
 209 50 73 
 144 146 250 
 34 195 147 
 232 194 153 
 75 250 146 
 68 139 247 
 158 11 203 
 24 203 11 
 251 157 143 
 98 96 252 
 42 153 43 
 104 253 105 
 136 174 254 
 177 195 29 
 90 255 65 
 99 119 256 
 30 29 195 
 46 129 214 
 59 205 27 
 152 153 194 
 257 174 258 
 78 201 79 
 156 79 201 
 232 171 194 
 142 196 205 
 259 2 246 
 64 243 199 
 72 231 6 
 34 133 127 
 32 147 202 
 16 199 243 
 259 260 2 
 3 2 260 
 188 1 189 
 232 149 164 
 240 168 145 
 249 60 89 
 156 235 261 
 208 210 247 
 74 258 174 
 53 52 262 
 21 89 60 
 218 159 263 
 77 76 60 
 82 264 163 
 24 11 246 
 170 247 210 
 170 69 247 
 46 212 44 
 86 182 85 
 95 85 182 
 236 162 183 
 181 252 96 
 236 183 237 
 166 168 241 
 113 256 63 
 233 63 256 
 8 183 162 
 190 219 167 
 81 179 80 
 68 247 69 
 17 151 265 
 12 165 13 
 248 140 161 
 228 224 266 
 81 79 261 
 216 51 260 
 3 260 51 
 220 267 221 
 188 237 183 
 220 108 47 
 22 20 219 
 15 13 73 
 101 169 248 
 170 84 194 
 268 261 235 
 88 196 154 
 156 261 79 
 259 246 269 
 152 194 84 
 75 263 250 
 178 164 80 
 220 176 267 
 32 212 215 
 211 215 212 
 35 136 270 
 209 73 13 
 227 206 192 
 16 18 199 
 107 123 230 
 233 119 102 
 5 102 119 
 112 111 266 
 228 266 111 
 240 271 241 
 272 267 176 
 17 94 18 
 22 189 51 
 3 51 189 
 177 147 195 
 160 151 248 
 101 248 151 
 98 225 97 
 218 262 52 
 236 248 169 
 273 97 225 
 211 214 200 
 172 222 274 
 275 274 222 
 188 183 118 
 160 115 265 
 114 265 115 
 113 62 173 
 220 43 176 
 158 39 223 
 110 213 111 
 90 191 255 
 137 270 136 
 98 252 224 
 64 66 243 
 10 269 246 
 3 189 1 
 106 230 121 
 276 87 198 
 117 202 116 
 113 234 256 
 99 256 234 
 160 248 161 
 81 261 277 
 272 176 83 
 228 278 225 
 228 213 278 
 104 130 253 
 245 243 66 
 273 258 97 
 268 235 279 
 233 150 41 
 74 97 258 
 272 83 163 
 152 83 176 
 16 238 41 
 134 136 254 
 35 270 67 
 75 87 280 
 268 217 277 
 57 277 217 
 236 169 162 
 208 192 206 
 10 246 11 
 257 258 281 
 61 63 238 
 24 23 203 
 103 203 23 
 178 242 164 
 77 60 197 
 99 234 204 
 10 186 269 
 26 237 131 
 188 131 237 
 268 277 261 
 53 262 180 
 82 210 207 
 95 37 85 
 122 135 120 
 134 120 135 
 257 126 282 
 257 281 126 
 276 198 283 
 208 139 184 
 185 184 139 
 53 179 54 
 61 238 243 
 16 243 238 
 233 256 119 
 249 197 60 
 276 283 180 
 10 31 186 
 25 161 140 
 251 271 284 
 71 283 198 
 257 254 174 
 172 62 222 
 208 184 192 
 166 241 143 
 251 143 241 
 251 284 157 
 61 244 222 
 275 222 244 
 71 171 242 
 239 264 207 
 82 207 264 
 185 269 186 
 72 100 285 
 7 162 169 
 239 207 206 
 128 281 286 
 273 286 281 
 251 241 271 
 178 180 283 
 273 281 258 
 259 229 287 
 114 94 265 
 17 265 94 
 160 265 151 
 117 44 212 
 125 193 282 
 226 186 31 
 128 126 281 
 132 278 213 
 249 288 175 
 138 175 288 
 268 279 289 
 268 289 217 
 259 269 229 
 113 173 234 
 138 287 229 
 228 111 213 
 128 290 127 
 30 127 290 
 132 286 278 
 72 38 231 
 40 231 38 
 216 260 287 
 259 287 260 
 32 202 212 
 117 212 202 
 134 254 282 
 273 225 278 
 276 180 262 
 134 282 193 
 257 282 254 
 125 282 126 
 216 287 288 
 138 288 287 
 71 242 283 
 81 54 179 
 276 262 280 
 218 280 262 
 81 277 54 
 57 54 277 
 188 118 1 
 185 229 269 
 273 278 286 
 178 283 242 
 218 263 280 
 75 280 263 
 249 89 288 
 132 290 286 
 216 288 89 
 4 1 118 
 132 28 290 
 276 280 87 
 134 193 120 
 128 286 290 
 72 285 38 
 93 120 193 
 30 290 28 
