TITLE      =  "2D FE Unstructured grid data" 
VARIABLES = "X", "Y", "U", "Dom" 
ZONE T="P1", F=FEPOINT, N= 280 E= 496  ET=TRIANGLE 
 2.475768 4.831185 7.307007 6
 2.628444 4.929286 7.557788 6
 2.494393 5.003564 7.498017 6
 3.757726 4.591319 8.349072 6
 3.841367 4.732700 8.574096 6
 3.696275 4.709718 8.406024 6
 3.777970 3.146677 6.924618 6
 3.652420 3.199282 6.851676 6
 3.661256 3.088212 6.749440 6
 3.743002 3.263467 7.006442 6
 3.813725 3.367210 7.180913 6
 3.647573 3.329685 6.977233 6
 2.746652 3.966335 6.713006 6
 2.786584 3.867271 6.653869 6
 2.905543 3.942552 6.848110 6
 3.035245 2.932065 5.967284 6
 2.925088 2.947470 5.872534 6
 2.902174 2.798072 5.700225 6
 2.578471 3.951762 6.530253 6
 2.670653 4.094378 6.765057 6
 3.458855 4.122495 7.581364 6
 3.606796 4.177765 7.784575 6
 3.483129 4.255417 7.738563 6
 3.598774 4.337320 7.936114 6
 2.848079 5.061532 7.909672 6
 2.716476 5.031258 7.747794 6
 2.764699 4.932348 7.697107 6
 2.741634 3.009562 5.751177 6
 2.625647 3.073562 5.699196 6
 2.667062 2.893990 5.561037 6
 3.445907 2.659313 6.105189 6
 3.518409 2.790100 6.308479 6
 3.368222 2.742452 6.110645 6
 2.881194 4.935314 7.816566 6
 2.461796 4.161706 6.623530 6
 2.524874 4.329898 6.854807 6
 2.368239 4.274683 6.642956 6
 2.802897 4.053679 6.856596 6
 2.972581 3.152143 6.124704 6
 3.051320 3.237915 6.289217 6
 2.891829 3.294670 6.186484 6
 2.913982 3.504823 6.418798 6
 3.083112 3.536109 6.619212 6
 2.906021 3.610849 6.516868 6
 2.991431 3.677116 6.668549 6
 3.083775 2.826700 5.910451 6
 2.770490 3.248269 6.018744 6
 2.759542 3.399570 6.159104 6
 3.368343 3.309905 6.678229 6
 3.518182 3.389859 6.908023 6
 3.370279 3.428877 6.799145 6
 3.406950 5.209372 8.616385 6
 3.306184 5.104462 8.410709 6
 3.421729 5.051481 8.473266 6
 3.451608 3.228068 6.679656 6
 2.857611 3.172049 6.029644 6
 3.213394 5.191581 8.405039 6
 3.298322 5.287309 8.585697 6
 3.683997 3.444801 7.128781 6
 2.677975 4.403424 7.081439 6
 2.632258 4.578031 7.210333 6
 2.560628 4.436356 6.997022 6
 3.390509 2.852428 6.242907 6
 2.748864 4.504391 7.253297 6
 3.486349 2.979638 6.465957 6
 3.405792 3.076089 6.481855 6
 3.373044 2.967898 6.340913 6
 3.287072 3.032096 6.319141 6
 2.868498 3.815696 6.684203 6
 2.319805 4.424444 6.744291 6
 2.195001 4.360684 6.555726 6
 2.681637 4.256405 6.938076 6
 3.001331 5.595352 8.596763 6
 3.073294 5.462520 8.535892 6
 3.104973 5.640267 8.745318 6
 3.036210 5.285058 8.321341 6
 3.164217 5.324009 8.488294 6
 2.328976 4.094757 6.423759 6
 3.560399 3.252693 6.813066 6
 3.544816 3.119268 6.664057 6
 3.285072 4.974949 8.260073 6
 2.288267 3.928280 6.216568 6
 2.362937 3.794144 6.157093 6
 2.445605 3.866630 6.312253 6
 2.582572 4.189142 6.771747 6
 3.739409 2.992201 6.731579 6
 3.420814 4.912316 8.333176 6
 3.522639 5.143044 8.665735 6
 2.438004 4.007002 6.445032 6
 3.803937 5.090874 8.894852 6
 3.644509 5.074558 8.719107 6
 3.738236 4.948034 8.686313 6
 3.549135 2.892482 6.441586 6
 3.672231 4.470662 8.142920 6
 3.522887 4.489528 8.012444 6
 3.686920 3.654907 7.341818 6
 3.811975 3.609040 7.421000 6
 3.758397 3.758531 7.516921 6
 3.158106 4.022573 7.180693 6
 3.266143 3.958967 7.225118 6
 3.291701 4.098896 7.390612 6
 2.658534 3.302438 5.960962 6
 2.883681 5.235128 8.118876 6
 2.739348 5.145971 7.885385 6
 2.747687 5.279744 8.027503 6
 3.669930 4.054786 7.724722 6
 3.553286 4.052860 7.606157 6
 3.663119 3.911580 7.574699 6
 2.896825 4.090075 6.986921 6
 2.559604 4.702583 7.262236 6
 2.620094 4.801671 7.421818 6
 3.189224 4.781227 7.970496 6
 3.283570 4.849749 8.133367 6
 3.133970 4.921449 8.055471 6
 2.723489 4.742270 7.465809 6
 3.026370 3.348619 6.374974 6
 2.958092 5.380297 8.338459 6
 3.114750 3.650118 6.764865 6
 3.049341 4.632110 7.681491 6
 2.900057 4.632640 7.532744 6
 2.965014 4.544440 7.509492 6
 2.946177 4.744067 7.690292 6
 2.609238 3.517793 6.127029 6
 2.523007 3.648184 6.171198 6
 2.486100 3.502004 5.988104 6
 3.510444 3.945162 7.455612 6
 3.306064 4.596165 7.902266 6
 3.447032 4.666956 8.114021 6
 3.290806 4.717952 8.008806 6
 3.381533 4.790601 8.172174 6
 3.204232 3.703293 6.907521 6
 3.226218 3.840267 7.066492 6
 3.088363 3.763826 6.852190 6
 2.264641 3.792607 6.057262 6
 3.482398 4.827260 8.309693 6
 2.614580 5.068915 7.683553 6
 3.196591 2.947488 6.144052 6
 3.565191 4.752255 8.317484 6
 3.405697 4.008058 7.413764 6
 3.134465 3.448697 6.583152 6
 3.206612 3.570246 6.776850 6
 2.958561 5.491240 8.449876 6
 3.730860 4.287013 8.017887 6
 2.818202 2.930408 5.748591 6
 3.158952 4.149160 7.308127 6
 3.355225 4.213881 7.569124 6
 3.590630 2.684185 6.274780 6
 3.182012 5.557523 8.739605 6
 3.485222 4.369045 7.854291 6
 2.675906 3.858227 6.534148 6
 3.233610 2.820423 6.054005 6
 2.940133 4.188791 7.128945 6
 2.794811 4.175054 6.969890 6
 2.859029 4.264322 7.123381 6
 2.556775 3.810593 6.367381 6
 3.313319 3.773828 7.087145 6
 3.105634 3.030736 6.136347 6
 3.277953 2.669799 5.947721 6
 3.334796 3.669358 7.004148 6
 3.130578 3.901307 7.031895 6
 3.253668 3.446566 6.700220 6
 3.038144 2.689117 5.727232 6
 3.004563 3.449836 6.454387 6
 2.875806 3.413953 6.289746 6
 3.189896 5.445690 8.635659 6
 3.613718 4.608540 8.222290 6
 2.653286 3.746954 6.400251 6
 2.535318 3.365102 5.900414 6
 2.772818 3.517823 6.290640 6
 2.540742 4.074995 6.615763 6
 3.616906 5.228161 8.845116 6
 3.724198 5.187801 8.912045 6
 3.259622 3.307623 6.567224 6
 3.308843 3.184427 6.493248 6
 3.145880 2.740204 5.886056 6
 2.969521 4.300983 7.270532 6
 2.823711 4.393661 7.217407 6
 2.964751 3.791596 6.756353 6
 2.956564 4.427278 7.383879 6
 3.749798 4.799947 8.549781 6
 2.468989 4.628735 7.097773 6
 2.523161 4.529856 7.053060 6
 3.033436 3.865733 6.899179 6
 3.839779 3.241144 7.080895 6
 3.185332 5.716519 8.901929 6
 3.203882 5.822182 9.026155 6
 3.046258 5.754431 8.800768 6
 2.843946 5.346820 8.190837 6
 3.478721 3.539876 7.018585 6
 3.102245 5.190632 8.292945 6
 3.193439 5.063548 8.257047 6
 3.065319 4.494302 7.559656 6
 3.173604 4.555604 7.729245 6
 2.442650 4.721149 7.163850 6
 3.384558 3.882700 7.267261 6
 2.798532 3.650784 6.449317 6
 3.554677 4.894423 8.449142 6
 3.533933 5.005734 8.539709 6
 3.077426 5.065394 8.142883 6
 2.976465 4.996763 7.973286 6
 2.980428 4.866797 7.847277 6
 3.026547 4.078624 7.105189 6
 3.601517 3.546279 7.147781 6
 2.451574 3.748473 6.200057 6
 3.295975 2.916973 6.212921 6
 2.571431 3.205691 5.777112 6
 3.784562 3.477700 7.262243 6
 3.659046 2.917655 6.576670 6
 3.739827 2.848954 6.588749 6
 2.776603 4.618862 7.395511 6
 2.677222 3.628210 6.305439 6
 3.565874 3.649191 7.215055 6
 3.447007 3.652848 7.099850 6
 2.849089 4.819247 7.668390 6
 2.862094 4.510117 7.372251 6
 3.519101 3.834054 7.353157 6
 2.839083 4.711417 7.550549 6
 2.440646 4.411197 6.851883 6
 2.634807 5.354449 7.989326 6
 2.626641 5.202529 7.829236 6
 3.234506 4.368670 7.603202 6
 3.086691 4.360928 7.447646 6
 3.178654 4.262046 7.440723 6
 2.717163 4.844965 7.562183 6
 3.160703 4.445453 7.606188 6
 3.251264 5.385256 8.636585 6
 3.381427 5.371530 8.753016 6
 3.278691 5.499142 8.777899 6
 3.398920 4.532316 7.931268 6
 3.077367 4.789127 7.866546 6
 3.649375 4.834450 8.483858 6
 3.180450 3.215299 6.395729 6
 3.155227 3.341714 6.496924 6
 3.166606 4.677914 7.844562 6
 2.986669 5.144243 8.130976 6
 3.204031 3.102371 6.306381 6
 2.768164 4.308964 7.077161 6
 2.916168 5.671409 8.587656 6
 3.622774 3.758597 7.381367 6
 2.667090 3.420545 6.087627 6
 3.698494 4.373678 8.072195 6
 2.765425 3.758421 6.523856 6
 2.754933 3.122748 5.877666 6
 2.676207 3.190542 5.866735 6
 3.296501 4.470175 7.766707 6
 3.875270 4.965647 8.840957 6
 3.510435 5.292639 8.803128 6
 2.364691 3.674391 6.039091 6
 3.609040 2.999769 6.608780 6
 3.624146 4.951439 8.575630 6
 3.050842 3.962158 7.013012 6
 3.062189 4.222247 7.284461 6
 3.631456 2.815304 6.446724 6
 3.808077 4.401528 8.209624 6
 3.830001 5.262227 9.092281 6
 3.834062 4.861106 8.695201 6
 2.998208 3.041924 6.040110 6
 3.083927 3.128006 6.211913 6
 3.315720 5.737246 9.053043 6
 2.791103 5.659033 8.450210 6
 2.767023 5.534519 8.301614 6
 2.885120 5.567744 8.452940 6
 3.714086 3.543481 7.257550 6
 3.252874 4.200253 7.453145 6
 3.632662 5.360464 8.993186 6
 3.243331 5.637528 8.880923 6
 2.506077 5.152360 7.658499 6
 2.639488 5.494450 8.134012 6
 2.755666 5.402276 8.158019 6
 3.351694 3.548263 6.899949 6
 3.371267 4.340522 7.711816 6
 3.422117 4.438757 7.860902 6
 2.872922 3.056670 5.929571 6
 2.874966 5.450286 8.325326 6
 2.401201 4.527609 6.928852 6
 3.279840 4.277283 7.557145 6
 3.416794 3.773523 7.190318 6
 3.516917 3.732760 7.249671 6
 3.713630 5.288313 9.001998 6
 2.883663 3.715283 6.598951 6
 1 2 3 
 4 5 6 
 7 8 9 
 10 11 12 
 13 14 15 
 16 17 18 
 19 13 20 
 21 22 23 
 24 23 22 
 25 26 27 
 28 29 30 
 31 32 33 
 25 27 34 
 35 36 37 
 13 15 38 
 39 40 41 
 42 43 44 
 45 44 43 
 46 16 18 
 47 41 48 
 49 50 51 
 52 53 54 
 49 55 50 
 39 41 56 
 57 53 58 
 12 11 59 
 60 61 62 
 32 63 33 
 58 53 52 
 64 61 60 
 65 66 67 
 68 67 66 
 69 15 14 
 70 71 37 
 72 60 36 
 73 74 75 
 76 77 74 
 7 10 8 
 35 37 78 
 79 55 80 
 81 54 53 
 82 83 84 
 35 85 36 
 72 36 85 
 66 80 55 
 7 9 86 
 81 87 54 
 52 54 88 
 79 80 8 
 82 84 89 
 19 89 84 
 90 91 92 
 32 93 63 
 65 63 93 
 24 94 95 
 96 97 98 
 99 100 101 
 47 48 102 
 25 103 104 
 105 104 103 
 106 107 108 
 35 78 89 
 109 38 15 
 1 110 111 
 112 113 114 
 115 110 61 
 116 41 40 
 1 111 2 
 76 74 117 
 45 43 118 
 119 120 121 
 119 122 120 
 123 124 125 
 107 126 108 
 127 128 129 
 130 129 128 
 131 132 133 
 82 134 83 
 81 114 113 
 130 128 135 
 136 2 26 
 27 26 2 
 46 137 16 
 128 138 135 
 21 101 139 
 43 140 141 
 73 142 74 
 24 22 143 
 17 144 18 
 65 80 66 
 43 141 118 
 99 101 145 
 21 146 101 
 31 147 32 
 74 148 75 
 24 95 149 
 19 150 13 
 151 137 46 
 152 153 109 
 154 153 152 
 19 84 155 
 131 156 132 
 157 16 137 
 151 158 33 
 131 159 156 
 79 50 55 
 132 160 133 
 161 141 140 
 162 46 18 
 116 163 164 
 74 77 165 
 166 128 95 
 167 155 124 
 116 164 41 
 123 125 168 
 151 33 63 
 42 44 169 
 35 89 170 
 76 117 103 
 171 88 91 
 90 172 91 
 171 91 172 
 161 173 51 
 68 66 174 
 151 175 158 
 154 176 177 
 49 174 55 
 69 178 15 
 179 177 176 
 131 118 141 
 180 6 5 
 181 182 61 
 110 181 61 
 182 62 61 
 183 15 178 
 9 8 80 
 7 184 10 
 185 186 187 
 42 163 43 
 103 117 188 
 189 51 50 
 166 94 4 
 42 169 164 
 64 60 177 
 57 190 191 
 119 192 193 
 1 194 110 
 99 160 100 
 166 138 128 
 195 100 132 
 196 169 44 
 136 3 2 
 197 198 87 
 199 200 114 
 201 114 200 
 109 15 202 
 189 50 203 
 59 203 50 
 124 155 204 
 151 63 205 
 132 100 160 
 28 30 144 
 206 102 168 
 115 111 110 
 49 51 173 
 66 55 174 
 131 141 159 
 59 11 207 
 208 209 86 
 82 89 78 
 115 61 210 
 123 211 124 
 167 124 211 
 195 132 156 
 199 191 190 
 183 133 160 
 189 212 213 
 189 203 212 
 201 214 122 
 31 33 158 
 120 210 215 
 108 126 216 
 49 173 174 
 214 217 122 
 36 218 37 
 105 219 220 
 221 222 223 
 27 2 224 
 225 222 221 
 226 227 228 
 128 229 95 
 112 114 230 
 180 92 231 
 232 233 40 
 127 129 234 
 166 95 94 
 25 200 235 
 199 235 200 
 25 104 26 
 72 20 153 
 157 137 236 
 60 237 177 
 48 164 169 
 73 187 238 
 96 98 239 
 108 239 98 
 127 234 193 
 197 87 135 
 24 149 23 
 65 67 63 
 123 168 240 
 76 103 235 
 21 23 146 
 195 216 126 
 64 215 210 
 24 241 94 
 91 88 198 
 196 242 211 
 28 243 29 
 138 6 231 
 166 6 138 
 54 87 198 
 226 165 77 
 29 243 244 
 127 193 245 
 225 245 193 
 195 126 139 
 25 235 103 
 225 193 192 
 90 92 246 
 52 247 227 
 119 234 230 
 167 211 242 
 13 38 20 
 19 20 170 
 72 85 20 
 248 124 204 
 9 249 86 
 91 250 92 
 119 230 122 
 208 86 249 
 120 122 217 
 108 216 239 
 116 40 233 
 57 191 53 
 15 251 202 
 201 230 114 
 68 236 137 
 252 202 145 
 99 145 202 
 119 121 192 
 32 147 253 
 254 94 241 
 199 114 191 
 81 191 114 
 162 175 46 
 25 34 200 
 151 46 175 
 90 255 172 
 180 256 92 
 39 257 258 
 127 229 128 
 252 145 223 
 52 88 247 
 171 247 88 
 92 250 231 
 248 83 134 
 157 258 257 
 185 259 186 
 105 103 188 
 54 198 88 
 70 37 218 
 201 34 214 
 260 261 262 
 72 237 60 
 101 100 139 
 19 170 89 
 97 263 207 
 232 174 173 
 167 242 150 
 21 107 22 
 136 104 220 
 105 220 104 
 74 165 148 
 27 224 214 
 115 214 224 
 145 264 223 
 171 265 247 
 126 107 139 
 21 139 107 
 161 233 173 
 260 262 238 
 148 228 266 
 48 169 240 
 123 240 169 
 120 215 121 
 136 267 3 
 47 56 41 
 79 12 50 
 59 50 12 
 254 241 143 
 48 41 164 
 268 269 261 
 161 51 270 
 245 221 271 
 268 219 269 
 201 200 34 
 272 149 95 
 116 140 163 
 116 233 140 
 72 153 237 
 42 164 163 
 154 237 153 
 195 139 100 
 150 242 14 
 52 227 58 
 226 58 227 
 27 214 34 
 161 270 141 
 39 56 273 
 206 244 102 
 274 261 269 
 272 95 229 
 272 245 271 
 105 269 219 
 182 218 62 
 157 236 258 
 127 245 229 
 272 229 245 
 57 58 77 
 226 77 58 
 19 155 150 
 182 275 218 
 24 143 241 
 180 231 6 
 166 4 6 
 276 146 271 
 23 271 146 
 109 202 152 
 252 152 202 
 196 211 169 
 59 263 203 
 96 203 263 
 195 277 216 
 17 273 144 
 28 144 273 
 36 60 62 
 274 188 117 
 22 107 106 
 99 202 251 
 115 217 214 
 197 138 231 
 64 210 61 
 232 40 258 
 183 251 15 
 179 215 177 
 81 113 87 
 130 87 113 
 197 135 138 
 39 273 257 
 96 239 212 
 278 212 239 
 81 53 191 
 76 235 190 
 278 239 216 
 136 220 267 
 10 184 11 
 17 257 273 
 96 263 97 
 20 38 153 
 159 213 277 
 123 169 211 
 252 222 176 
 148 266 75 
 185 75 266 
 179 121 215 
 273 56 243 
 182 181 275 
 199 190 235 
 84 204 155 
 112 230 234 
 179 222 192 
 225 192 222 
 73 262 142 
 47 102 244 
 64 177 215 
 252 223 222 
 105 188 269 
 130 135 87 
 167 150 155 
 112 129 113 
 130 113 129 
 171 279 265 
 206 29 244 
 28 273 243 
 79 8 12 
 10 12 8 
 274 262 261 
 252 176 152 
 136 26 104 
 112 234 129 
 73 75 187 
 185 187 75 
 68 137 205 
 35 170 85 
 20 85 170 
 276 271 221 
 179 192 121 
 278 213 212 
 47 244 243 
 92 256 246 
 179 176 222 
 278 277 213 
 232 236 174 
 96 212 203 
 68 205 67 
 201 122 230 
 2 111 224 
 154 177 237 
 57 77 190 
 76 190 77 
 278 216 277 
 159 277 156 
 168 102 240 
 48 240 102 
 159 270 213 
 232 258 236 
 197 231 250 
 185 266 259 
 189 270 51 
 159 141 270 
 196 280 242 
 69 242 280 
 225 221 245 
 73 238 262 
 232 173 233 
 68 174 236 
 39 258 40 
 154 152 176 
 189 213 270 
 109 153 38 
 119 193 234 
 171 172 279 
 47 243 56 
 274 269 188 
 180 5 256 
 23 149 271 
 272 271 149 
 276 223 264 
 161 140 233 
 101 264 145 
 13 150 14 
 43 163 140 
 36 62 218 
 276 221 223 
 110 194 181 
 276 264 146 
 101 146 264 
 255 279 172 
 59 207 263 
 274 142 262 
 151 205 137 
 195 156 277 
 274 117 142 
 45 133 178 
 183 178 133 
 120 217 210 
 115 210 217 
 70 218 275 
 65 249 80 
 9 80 249 
 69 14 242 
 63 67 205 
 45 280 44 
 196 44 280 
 69 280 178 
 157 257 16 
 17 16 257 
 208 93 253 
 45 118 133 
 115 224 111 
 131 133 118 
 74 142 117 
 148 165 228 
 226 228 165 
 197 250 198 
 91 198 250 
 32 253 93 
 208 249 93 
 45 178 280 
 84 83 204 
 248 204 83 
 99 251 160 
 183 160 251 
 208 253 209 
 65 93 249 
