TITLE      =  "2D FE Unstructured grid data" 
VARIABLES = "X", "Y", "U", "Dom" 
ZONE T="P1", F=FEPOINT, N= 1183 E= 2229  ET=TRIANGLE 
 8.136876 4.213919 12.350784 4
 8.233779 4.208621 12.442386 4
 8.197956 4.353964 12.551906 4
 8.043000 4.266956 12.309946 4
 8.820605 5.021739 13.842319 4
 8.722643 4.893626 13.616248 4
 8.893986 4.907285 13.801250 4
 8.833369 4.807293 13.640648 4
 5.257092 4.951127 10.208217 4
 5.213462 4.793371 10.006827 4
 5.330429 4.858052 10.188475 4
 8.283409 4.508610 12.792006 4
 8.329446 4.403931 12.733369 4
 8.401311 4.564542 12.965836 4
 6.515219 5.280851 11.796048 4
 6.635678 5.241629 11.877281 4
 6.685428 5.362820 12.048227 4
 8.446996 4.428215 12.875202 4
 5.151765 4.907310 10.059072 4
 9.238634 6.557529 15.796140 4
 9.209997 6.687902 15.897875 4
 9.073569 6.634866 15.708407 4
 6.546347 5.390184 11.936511 4
 8.564707 5.134566 13.699246 4
 8.709617 5.112521 13.822117 4
 8.627939 5.212504 13.840422 4
 6.849532 3.776139 10.625648 4
 6.800718 3.652420 10.453118 4
 6.911029 3.660890 10.571898 4
 8.199057 5.447165 13.646210 4
 8.251304 5.295807 13.547102 4
 8.331640 5.457134 13.788756 4
 9.364298 5.069196 14.433475 4
 9.440231 4.961960 14.402183 4
 9.521749 5.133544 14.655273 4
 9.111339 3.475663 12.586990 4
 9.189052 3.630861 12.819903 4
 9.037111 3.620797 12.657896 4
 9.128688 6.469355 15.598023 4
 6.810746 4.185935 10.996661 4
 6.771570 4.326343 11.097898 4
 6.666837 4.183290 10.850110 4
 4.970822 4.493345 9.464158 4
 5.151458 4.531467 9.682916 4
 5.054547 4.627533 9.682070 4
 8.873552 5.163724 14.037245 4
 8.990396 5.045081 14.035460 4
 6.642293 4.299617 10.941893 4
 8.541680 4.309810 12.851481 4
 8.655129 4.284656 12.939771 4
 8.563005 4.423867 12.986856 4
 6.070206 3.682619 9.752812 4
 6.214737 3.731762 9.946481 4
 6.058446 3.837669 9.896097 4
 6.213589 3.874769 10.088342 4
 9.739560 3.850509 13.590060 4
 9.820748 3.979503 13.800241 4
 9.701102 4.005759 13.706861 4
 8.583735 5.031181 13.614902 4
 7.223019 5.959930 13.182928 4
 7.327240 5.856607 13.183823 4
 7.330631 6.014463 13.345073 4
 9.252457 3.526508 12.778957 4
 5.782885 4.915845 10.698711 4
 5.654538 5.009116 10.663646 4
 5.613523 4.876764 10.490276 4
 5.510816 4.964171 10.474979 4
 8.627259 5.314714 13.941945 4
 8.528218 5.353157 13.881351 4
 8.491294 5.224998 13.716272 4
 5.056756 4.851300 9.908053 4
 5.088861 4.732314 9.821166 4
 5.222429 5.423650 10.646078 4
 5.284202 5.287165 10.571373 4
 5.358247 5.399813 10.758054 4
 9.130545 5.131914 14.262447 4
 9.106349 4.979466 14.085794 4
 9.232071 5.051641 14.283697 4
 5.507239 3.685842 9.193051 4
 5.535018 3.555948 9.090934 4
 5.619704 3.700251 9.319934 4
 5.682586 3.599695 9.282253 4
 6.296477 6.291746 12.588210 4
 6.178900 6.299035 12.477928 4
 6.199009 6.150740 12.349737 4
 7.340687 3.445907 10.786575 4
 7.209900 3.518409 10.728301 4
 7.257548 3.368222 10.625761 4
 10.000000 3.472222 13.472222 4
 10.000000 3.611111 13.611111 4
 9.854188 3.516792 13.370981 4
 5.103247 4.421588 9.524820 4
 6.577372 6.121279 12.698637 4
 6.721230 6.140491 12.861708 4
 6.586689 6.236336 12.823014 4
 9.892745 3.641623 13.534368 4
 9.493650 4.264837 13.758482 4
 9.630780 4.212965 13.843740 4
 9.569606 4.362883 13.932480 4
 9.701820 4.346334 14.048151 4
 8.599419 6.770926 15.370323 4
 8.634856 6.903939 15.538770 4
 8.467883 6.821981 15.289840 4
 7.708025 5.982225 13.690223 4
 7.537745 5.993568 13.531290 4
 7.569298 5.891051 13.460326 4
 9.792582 4.131754 13.924327 4
 8.554075 6.198953 14.753008 4
 8.398484 6.284443 14.682902 4
 8.440294 6.124748 14.565024 4
 8.397983 5.325667 13.723631 4
 6.690095 3.368343 10.058415 4
 6.610770 3.517084 10.127831 4
 6.571198 3.370148 9.941324 4
 9.782336 6.375421 16.157745 4
 9.714513 6.491006 16.205507 4
 9.647049 6.309723 15.956767 4
 8.889911 6.068428 14.958308 4
 8.876207 5.943291 14.819478 4
 9.011252 6.006241 15.017467 4
 8.678182 4.436863 13.115038 4
 9.449766 6.670732 16.120480 4
 9.491693 6.805404 16.297071 4
 9.328373 6.770059 16.098417 4
 6.771995 3.451471 10.223441 4
 8.370704 5.826476 14.197160 4
 8.212707 5.784408 13.997102 4
 8.353352 5.703722 14.057054 4
 7.445928 5.925075 13.370984 4
 9.655478 5.224209 14.879678 4
 9.658634 5.078186 14.736814 4
 9.803578 5.156919 14.960493 4
 9.763619 4.995296 14.758909 4
 9.516789 5.717927 15.234703 4
 9.396482 5.642149 15.038613 4
 9.580210 5.622232 15.202426 4
 9.512300 5.505040 15.017325 4
 9.573372 6.456118 16.029488 4
 8.363518 4.296433 12.659932 4
 8.857430 3.828493 12.685906 4
 8.906816 3.683397 12.590189 4
 9.000507 3.767156 12.767649 4
 9.144129 4.504739 13.648854 4
 9.057297 4.639683 13.696963 4
 8.979750 4.530584 13.510315 4
 5.977030 3.962249 9.939265 4
 5.876711 3.891672 9.768362 4
 9.565700 4.992430 14.558118 4
 6.850639 5.821062 12.671684 4
 6.764899 5.732218 12.497101 4
 6.949240 5.690904 12.640121 4
 9.475797 6.554090 16.029875 4
 9.598319 6.671058 16.269356 4
 7.474355 3.948735 11.423079 4
 7.362502 3.998096 11.360578 4
 7.354558 3.843473 11.198015 4
 7.787800 3.842246 11.630040 4
 7.717743 3.712051 11.429784 4
 7.853895 3.704172 11.558064 4
 6.124452 5.399304 11.523735 4
 6.250869 5.309196 11.560051 4
 6.212828 5.480120 11.692933 4
 6.765488 4.794387 11.559854 4
 6.921344 4.852563 11.773887 4
 6.792965 4.944991 11.737931 4
 6.197004 5.609816 11.806803 4
 6.292776 5.740302 12.033054 4
 6.176824 5.767386 11.944197 4
 7.147572 3.390509 10.538069 4
 5.214097 3.331745 8.545807 4
 5.065293 3.368719 8.433971 4
 5.075511 3.255838 8.331307 4
 5.146527 5.660914 10.807452 4
 5.281844 5.563485 10.845330 4
 5.260324 5.714407 10.974737 4
 5.957494 3.764695 9.722162 4
 7.484683 5.762489 13.247151 4
 5.345166 4.081958 9.427104 4
 5.223313 4.165204 9.388500 4
 5.225334 4.010153 9.235464 4
 5.087319 4.059354 9.146650 4
 8.537523 6.316555 14.854052 4
 7.258852 3.938286 11.197119 4
 7.865252 6.520246 14.385481 4
 7.986753 6.414214 14.400948 4
 8.011275 6.557845 14.569092 4
 6.807890 5.608046 12.415913 4
 5.003970 3.950645 8.954593 4
 4.940084 4.025068 8.965129 4
 8.998612 6.515900 15.514492 4
 8.508942 5.730789 14.239708 4
 8.491449 5.882424 14.373857 4
 9.510895 6.232086 15.742968 4
 9.597271 6.130297 15.727555 4
 9.711719 6.175150 15.886868 4
 8.883080 4.651967 13.535027 4
 7.507003 3.833107 11.340095 4
 7.411201 5.419500 12.830679 4
 7.443591 5.267010 12.710580 4
 7.530152 5.345335 12.875468 4
 7.588943 6.084669 13.673594 4
 6.506629 3.889209 10.395820 4
 6.371160 3.918404 10.289551 4
 6.453152 3.767231 10.220367 4
 5.458508 4.842330 10.300833 4
 6.324090 5.449898 11.773966 4
 7.248505 4.062547 11.311034 4
 6.967904 3.287072 10.254960 4
 7.032102 3.373044 10.405127 4
 6.923911 3.405792 10.329679 4
 7.020362 3.486349 10.506693 4
 6.206203 4.558007 10.764190 4
 6.139965 4.456416 10.596366 4
 6.238244 4.398286 10.636511 4
 8.224382 5.129714 13.354090 4
 8.161983 4.972324 13.134290 4
 8.308622 5.038104 13.346714 4
 6.365672 4.825902 11.191546 4
 6.262121 4.844088 11.106181 4
 6.236480 4.716629 10.953085 4
 9.026536 5.614038 14.640553 4
 9.006129 5.434222 14.440320 4
 9.121614 5.499931 14.621516 4
 6.318694 4.601766 10.920437 4
 6.332431 4.471969 10.804387 4
 6.436944 4.559677 10.996600 4
 6.707098 6.267285 12.974370 4
 8.993105 3.903397 12.896480 4
 7.432907 3.754267 11.187161 4
 7.680612 4.592384 12.272974 4
 7.803439 4.691078 12.494495 4
 7.654087 4.696296 12.350362 4
 7.793516 4.580345 12.373849 4
 7.331261 5.717915 13.049157 4
 7.779768 5.695951 13.475701 4
 7.880129 5.779633 13.659741 4
 7.702898 5.823640 13.526522 4
 8.001240 6.125637 14.126867 4
 8.113116 6.052567 14.165664 4
 8.129907 6.199393 14.329282 4
 5.427352 5.250156 10.677498 4
 8.116965 5.102116 13.219072 4
 5.711236 4.758887 10.470105 4
 4.979978 4.129759 9.109715 4
 8.499805 4.198955 12.698744 4
 8.602221 3.469974 12.072180 4
 8.556871 3.586126 12.142982 4
 8.437001 3.520203 11.957190 4
 7.695964 5.158335 12.854279 4
 7.704840 4.993128 12.697954 4
 7.798072 5.105775 12.903833 4
 7.488338 5.133633 12.621949 4
 7.391780 5.076591 12.468350 4
 7.464369 4.987767 12.452111 4
 7.435950 4.462722 11.898652 4
 7.340311 4.526483 11.866772 4
 7.320731 4.347878 11.668589 4
 7.238105 4.475309 11.713396 4
 8.462506 3.635818 12.098309 4
 8.570185 3.698988 12.269161 4
 8.418548 3.747811 12.166349 4
 8.578001 3.849503 12.427493 4
 8.461940 3.408179 11.870098 4
 6.458292 4.860746 11.319015 4
 6.561650 4.911911 11.473536 4
 6.449646 4.988196 11.437819 4
 9.656452 4.903107 14.559555 4
 6.348578 6.008866 12.357428 4
 6.448305 6.119336 12.567634 4
 6.317267 6.096814 12.414068 4
 6.733642 3.740400 10.474027 4
 7.198951 5.742980 12.941915 4
 7.176685 5.859831 13.036496 4
 5.589419 4.442449 10.031849 4
 5.690715 4.356841 10.047540 4
 5.711939 4.496269 10.208188 4
 8.291259 6.184776 14.476008 4
 8.223780 6.085759 14.309507 4
 7.908357 4.798086 12.706429 4
 7.962013 4.663584 12.625590 4
 6.747306 3.560399 10.307684 4
 6.880623 3.544763 10.425369 4
 7.867022 6.172415 14.039417 4
 7.878946 6.014209 13.893136 4
 5.118882 3.475273 8.594113 4
 9.454902 3.848161 13.303047 4
 9.314283 3.848248 13.162515 4
 9.434791 3.702993 13.137768 4
 9.291065 3.714597 13.005654 4
 5.812953 4.400337 10.213272 4
 6.420067 5.386676 11.806720 4
 7.785075 6.078959 13.864012 4
 6.411714 5.261772 11.673462 4
 7.733526 5.338585 13.072097 4
 7.612352 5.241457 12.853788 4
 7.774418 5.233129 13.007530 4
 8.348732 4.179103 12.527825 4
 9.365487 4.864355 14.229828 4
 9.463585 4.799226 14.262802 4
 6.086353 6.241210 12.327549 4
 4.694458 3.842130 8.536564 4
 4.748693 3.756030 8.504697 4
 4.857194 3.886184 8.743355 4
 7.827161 5.898561 13.725704 4
 6.764845 5.204879 11.969703 4
 6.863762 5.336168 12.199909 4
 6.824794 5.472210 12.296986 4
 4.935095 3.324694 8.259751 4
 7.124092 5.526034 12.650106 4
 7.204670 5.405964 12.610612 4
 7.296735 5.500678 12.797391 4
 6.712580 3.932482 10.645044 4
 6.708884 4.073019 10.781882 4
 6.595653 3.964163 10.559801 4
 4.854363 3.730528 8.584856 4
 6.999556 4.038641 11.038176 4
 7.132358 4.123266 11.255605 4
 7.014201 4.188108 11.202287 4
 9.633027 6.555438 16.188450 4
 8.745855 3.392673 12.138514 4
 8.746016 3.500659 12.246660 4
 8.893339 5.523998 14.417312 4
 6.315060 3.798978 10.114019 4
 7.007150 3.739095 10.746213 4
 7.719899 4.769942 12.489820 4
 7.677336 4.871897 12.549214 4
 7.584693 4.797374 12.382047 4
 6.946815 5.205117 12.151913 4
 9.389235 6.324122 15.713337 4
 9.279037 6.403996 15.683021 4
 9.273932 6.211929 15.485843 4
 9.151763 6.320628 15.472367 4
 6.403944 4.719996 11.123918 4
 9.545782 4.888039 14.433810 4
 7.145138 4.312762 11.457872 4
 7.234975 4.226376 11.461329 4
 7.226786 4.375290 11.602052 4
 8.982921 4.773951 13.756845 4
 8.638648 3.969128 12.607762 4
 8.518836 3.956628 12.475455 4
 5.944004 4.749156 10.693144 4
 5.838029 4.800569 10.638577 4
 5.821872 4.670084 10.491933 4
 6.529588 5.553187 12.082756 4
 6.684817 5.529173 12.213967 4
 6.574519 5.663994 12.238492 4
 6.690910 5.668113 12.359003 4
 7.481462 4.203020 11.684461 4
 7.581713 4.284287 11.865992 4
 7.450148 4.327531 11.777666 4
 7.550530 3.698022 11.248548 4
 7.434972 3.621327 11.056288 4
 5.892580 6.036529 11.929105 4
 5.829604 5.902960 11.732558 4
 5.930879 5.901834 11.832701 4
 5.155808 4.309731 9.465521 4
 5.021509 4.346021 9.367517 4
 5.072066 4.195681 9.267725 4
 6.136762 4.092844 10.229590 4
 6.245292 4.146565 10.391845 4
 6.110779 4.221756 10.332510 4
 6.244764 4.271516 10.516267 4
 9.884130 3.862222 13.746350 4
 7.107476 3.549114 10.656574 4
 5.546039 4.041147 9.587164 4
 5.645875 3.954549 9.600401 4
 5.657291 4.098102 9.755369 4
 6.348769 6.192240 12.541001 4
 5.635381 6.053502 11.688883 4
 5.708464 6.179259 11.887728 4
 5.580335 6.184878 11.765220 4
 7.590600 4.173781 11.764363 4
 5.915690 4.628152 10.543818 4
 8.480675 5.451016 13.931667 4
 6.740088 4.479023 11.219089 4
 6.844259 4.575675 11.419921 4
 6.694670 4.607204 11.301850 4
 8.248270 5.643020 13.891272 4
 8.134847 3.534906 11.669744 4
 8.141157 3.688168 11.829320 4
 7.999675 3.667001 11.666664 4
 5.452739 5.522282 10.975019 4
 8.791578 4.266639 13.058197 4
 8.735228 4.162879 12.898091 4
 8.901535 4.154629 13.056147 4
 6.541129 5.048256 11.589358 4
 9.789417 5.397940 15.187352 4
 9.743815 5.500126 15.243938 4
 9.629246 5.391258 15.020494 4
 5.566566 4.755843 10.322400 4
 8.927892 3.522048 12.449923 4
 7.432375 6.025464 13.457823 4
 6.840518 4.024195 10.864694 4
 6.958953 3.898711 10.857649 4
 9.239473 5.574383 14.813836 4
 9.357913 5.466718 14.824613 4
 8.119693 3.335945 11.455623 4
 8.203995 3.214273 11.418260 4
 8.225669 3.402265 11.627922 4
 7.292564 6.143494 13.436041 4
 7.370585 6.231817 13.602385 4
 7.210431 6.242014 13.452431 4
 6.970466 5.038136 12.008587 4
 7.072138 5.117852 12.189966 4
 6.584668 4.109902 10.694551 4
 5.014447 3.851910 8.866329 4
 7.901470 4.551707 12.453154 4
 7.226384 5.625953 12.852320 4
 8.142313 4.540506 12.682812 4
 7.521933 5.446952 12.968867 4
 9.166834 6.086993 15.253801 4
 9.019207 6.168121 15.187303 4
 8.164438 4.105258 12.269691 4
 8.303850 4.077287 12.381128 4
 8.892035 3.981842 12.873856 4
 9.009155 4.033360 13.042490 4
 9.185892 4.630215 13.816081 4
 6.933664 4.371037 11.304681 4
 7.087327 4.451959 11.539261 4
 6.923322 4.490115 11.413414 4
 9.595148 3.911410 13.506547 4
 9.261940 4.191768 13.453692 4
 9.137074 4.064754 13.201814 4
 9.294507 4.016786 13.311272 4
 5.382433 3.262294 8.644683 4
 5.349648 3.407403 8.757013 4
 9.013980 4.902018 13.915982 4
 8.157369 5.343278 13.500633 4
 7.547746 6.456608 14.004339 4
 7.570994 6.315656 13.886632 4
 7.653225 6.422995 14.076200 4
 6.438160 5.975036 12.413183 4
 7.486845 3.218712 10.705549 4
 7.466652 3.355587 10.822232 4
 7.330201 3.277953 10.608138 4
 9.164279 4.330723 13.494989 4
 9.119013 4.198482 13.317478 4
 9.740313 5.638144 15.378442 4
 9.818915 5.770711 15.589616 4
 9.723989 5.769244 15.493223 4
 7.940942 4.044223 11.985156 4
 7.829739 4.154537 11.984263 4
 7.810811 3.992948 11.803748 4
 7.683034 4.079422 11.762444 4
 6.621573 3.804765 10.426324 4
 6.669802 3.646270 10.316045 4
 5.404654 3.643694 9.048313 4
 8.799227 3.695459 12.494674 4
 8.470879 5.998748 14.469603 4
 8.331203 6.030407 14.361593 4
 7.451898 6.332393 13.784269 4
 8.128344 6.504840 14.633164 4
 8.153173 6.393335 14.546488 4
 6.840674 6.409237 13.249901 4
 6.806112 6.512841 13.318939 4
 6.720660 6.397946 13.118596 4
 9.201405 4.935510 14.136902 4
 8.791797 4.408943 13.200722 4
 8.221743 6.270603 14.492327 4
 5.479351 5.804839 11.284187 4
 5.619124 5.899089 11.518205 4
 5.482297 5.971089 11.453392 4
 4.980274 3.545190 8.525429 4
 4.992145 3.435794 8.427907 4
 5.938301 3.649847 9.588123 4
 6.056940 3.532387 9.589301 4
 5.894660 3.516148 9.410776 4
 5.076163 3.588451 8.664580 4
 8.735496 6.378618 15.114084 4
 8.753009 6.218511 14.971488 4
 8.849186 6.340629 15.189789 4
 9.896333 4.076138 13.972461 4
 6.560232 3.675211 10.235420 4
 9.731742 3.404548 13.136284 4
 9.595600 3.461062 13.056657 4
 9.617782 3.328546 12.946324 4
 9.484823 3.377062 12.861876 4
 7.589087 5.067315 12.656383 4
 6.687865 4.905247 11.593088 4
 6.726094 5.043987 11.770055 4
 6.631585 5.002763 11.634322 4
 8.014758 5.026240 13.040988 4
 7.912322 5.070052 12.982363 4
 7.905993 4.939065 12.845040 4
 8.799455 6.008124 14.807560 4
 6.978658 5.457349 12.435991 4
 9.010417 4.264057 13.274446 4
 9.024271 4.401928 13.426183 4
 8.295546 6.352772 14.648300 4
 6.311346 5.599753 11.911075 4
 6.330822 5.175495 11.506296 4
 6.223165 5.123343 11.346490 4
 6.127608 5.195673 11.323260 4
 6.631111 6.026497 12.657589 4
 7.236230 4.640737 11.876943 4
 7.596216 5.791795 13.387985 4
 7.416350 6.133093 13.549428 4
 7.492447 6.216510 13.708944 4
 7.919750 3.793797 11.713542 4
 8.010725 4.891712 12.902420 4
 7.646689 3.834103 11.480783 4
 7.589310 3.951665 11.540969 4
 8.608825 5.841091 14.449888 4
 8.750695 5.904475 14.655148 4
 8.598965 5.957848 14.556794 4
 9.878208 5.660171 15.538383 4
 7.076392 4.822713 11.899088 4
 7.184811 4.897837 12.082628 4
 7.085773 4.974476 12.060224 4
 5.387218 3.530872 8.918056 4
 7.355974 4.133937 11.489895 4
 7.511289 4.077076 11.588345 4
 9.596484 3.754119 13.350586 4
 8.868824 6.204435 15.073232 4
 5.017903 4.996035 10.013937 4
 5.162831 5.003466 10.166295 4
 8.280723 3.514709 11.795422 4
 6.631879 4.698171 11.330030 4
 6.770990 4.672834 11.443801 4
 9.405770 5.171740 14.577496 4
 7.819833 4.993639 12.813461 4
 7.592319 3.433949 11.026259 4
 7.679657 3.570265 11.249916 4
 7.536464 3.555036 11.091497 4
 9.544909 3.601026 13.145926 4
 9.696916 3.536094 13.233006 4
 7.136845 4.570757 11.707582 4
 8.746495 5.791094 14.537568 4
 8.140535 3.900856 12.041384 4
 8.224384 3.983773 12.208144 4
 8.077665 4.032224 12.109877 4
 9.843989 4.287328 14.131308 4
 9.836925 4.437894 14.274817 4
 9.314569 4.342330 13.656887 4
 8.390642 6.695442 15.086051 4
 8.217145 6.704888 14.922018 4
 8.322412 6.618354 14.940746 4
 8.929633 6.639293 15.568904 4
 8.847431 6.494970 15.342375 4
 8.786765 6.643507 15.430243 4
 8.044079 3.806587 11.850665 4
 8.028935 3.941008 11.969931 4
 6.950447 6.333149 13.283584 4
 6.936630 6.474407 13.411019 4
 9.643438 5.532288 15.175715 4
 8.751380 4.564247 13.315611 4
 8.861794 4.526571 13.388349 4
 8.695585 3.615175 12.310740 4
 8.902892 4.323374 13.226246 4
 5.740473 5.837762 11.578229 4
 5.763447 5.978761 11.742201 4
 6.635351 4.809585 11.444918 4
 5.396432 5.675292 11.071722 4
 7.293615 4.802448 12.096045 4
 7.301553 4.971611 12.273143 4
 7.381545 4.884879 12.266402 4
 8.706083 3.761477 12.467542 4
 8.648005 5.639409 14.287391 4
 8.803871 5.700864 14.504704 4
 8.645694 5.751071 14.396741 4
 9.268643 4.448486 13.717119 4
 6.848817 5.063982 11.912776 4
 9.659159 3.651117 13.310268 4
 6.011650 5.978821 11.990461 4
 8.535851 4.550630 13.086471 4
 6.076811 4.962896 11.039687 4
 6.038838 5.092997 11.131812 4
 5.911179 5.023998 10.935155 4
 9.038133 5.778345 14.816454 4
 8.926873 5.746908 14.673756 4
 7.670146 4.365158 12.035295 4
 7.547561 4.413340 11.960885 4
 5.253133 3.592055 8.845157 4
 5.149763 3.675928 8.825655 4
 5.523358 5.669412 11.192772 4
 5.322007 5.177429 10.499433 4
 8.808000 4.066500 12.874481 4
 8.343011 3.622439 11.965443 4
 8.261129 3.719571 11.980689 4
 7.315815 3.590630 10.906434 4
 5.768535 6.088666 11.857196 4
 6.822093 3.892826 10.714904 4
 9.867215 3.358270 13.225478 4
 9.443776 5.274645 14.718404 4
 9.352675 5.348751 14.701407 4
 9.293259 5.209572 14.502815 4
 7.051257 6.380390 13.431641 4
 8.068411 4.410639 12.479038 4
 5.489552 4.544328 10.033868 4
 5.448073 4.418504 9.866570 4
 5.156132 5.318573 10.474710 4
 6.638291 5.119759 11.758032 4
 8.960310 5.866012 14.826298 4
 7.845436 3.518463 11.363895 4
 7.950570 3.409978 11.360544 4
 7.993028 3.524222 11.517242 4
 9.569804 4.571433 14.141228 4
 9.660564 4.490055 14.150611 4
 9.656548 4.656291 14.312832 4
 9.775171 4.579339 14.354507 4
 6.908397 4.961698 11.870073 4
 7.647130 6.204130 13.851239 4
 5.669859 5.435611 11.105462 4
 5.576156 5.295096 10.871245 4
 5.721006 5.298769 11.019759 4
 5.930738 4.904496 10.835220 4
 7.179577 3.233610 10.413175 4
 7.052512 3.196591 10.249082 4
 7.173300 3.083775 10.257058 4
 4.946111 4.241687 9.187778 4
 6.462371 6.286243 12.748606 4
 7.627986 5.690001 13.317964 4
 6.836936 6.272779 13.109698 4
 8.224896 3.609948 11.834838 4
 7.060996 6.145112 13.206093 4
 6.950093 6.061373 13.011454 4
 7.052244 6.037927 13.090162 4
 8.948379 6.302454 15.250807 4
 8.703649 6.529664 15.233282 4
 6.506563 4.665459 11.171993 4
 6.012780 4.101611 10.114373 4
 8.426278 4.109686 12.535948 4
 5.809717 3.636134 9.445827 4
 9.587584 4.065104 13.652676 4
 9.477521 4.131865 13.609385 4
 5.754136 3.997911 9.752028 4
 5.877999 4.044163 9.922142 4
 9.035880 6.385995 15.421844 4
 7.640458 4.476840 12.117279 4
 7.769440 4.469009 12.238437 4
 9.749074 5.293266 15.042336 4
 8.040832 4.749102 12.789923 4
 10.000000 3.333333 13.333333 4
 8.573090 6.070598 14.643665 4
 6.553434 3.253668 9.807077 4
 6.429959 3.207061 9.636995 4
 6.551127 3.130996 9.682099 4
 8.822588 3.578330 12.400906 4
 8.410294 5.534955 13.945230 4
 6.958768 6.202483 13.161244 4
 5.577623 5.550125 11.127748 4
 9.507947 6.351065 15.858990 4
 9.136582 5.963425 15.099979 4
 9.259523 5.967681 15.227188 4
 5.254696 3.469616 8.724271 4
 9.387253 6.096727 15.483965 4
 9.282792 6.069672 15.352437 4
 10.000000 5.416667 15.416667 4
 10.000000 5.555555 15.555555 4
 9.862366 5.518735 15.381093 4
 7.250711 3.717463 10.968157 4
 7.357793 3.705432 11.063216 4
 9.370858 4.135249 13.506087 4
 9.017595 5.197884 14.215450 4
 8.943007 5.300575 14.243554 4
 7.176009 6.071414 13.247403 4
 6.485501 4.018254 10.503736 4
 6.366496 4.075804 10.442290 4
 9.305101 5.776990 15.082078 4
 9.427407 5.788477 15.215867 4
 9.403490 6.204954 15.608427 4
 5.804010 5.401198 11.205200 4
 7.628674 5.388248 13.016901 4
 8.281182 3.844628 12.125802 4
 8.184880 3.793109 11.977976 4
 6.734489 6.014736 12.749212 4
 4.759320 3.939040 8.698333 4
 7.032129 4.300321 11.332421 4
 7.924122 3.904215 11.828326 4
 6.339557 4.936695 11.276229 4
 6.692377 3.259622 9.951979 4
 9.276552 6.921955 16.198494 4
 9.206174 6.801451 16.007599 4
 4.892799 3.621217 8.513984 4
 4.877970 3.460608 8.338540 4
 4.805853 3.550478 8.356304 4
 9.893568 5.066491 14.960052 4
 8.699404 6.020217 14.719600 4
 9.143147 5.736123 14.879247 4
 6.815573 3.308843 10.124393 4
 7.259796 3.145880 10.405659 4
 8.444735 5.075212 13.519922 4
 8.351130 5.181495 13.532604 4
 9.681722 4.117604 13.799319 4
 6.110510 5.681526 11.792018 4
 7.991849 6.253964 14.245792 4
 9.184378 5.857446 15.041797 4
 10.000000 6.111111 16.111111 4
 10.000000 6.250000 16.250000 4
 9.862522 6.180937 16.043451 4
 9.116414 6.888556 16.004948 4
 9.060925 5.898763 14.959658 4
 8.893772 5.636862 14.530610 4
 5.535244 3.911534 9.446750 4
 8.600173 6.425545 15.025692 4
 5.986840 4.235795 10.222621 4
 7.991162 5.553521 13.544666 4
 7.851661 5.591433 13.443075 4
 7.907560 5.478063 13.385615 4
 7.190773 5.054635 12.245385 4
 9.726391 3.722780 13.449163 4
 6.207385 3.602029 9.809395 4
 5.666567 5.153465 10.820014 4
 5.531351 5.169324 10.700663 4
 5.788845 5.072317 10.861145 4
 9.238060 5.686774 14.924809 4
 5.810320 5.634842 11.445155 4
 5.925596 5.599349 11.524932 4
 5.888014 5.768173 11.656178 4
 5.654665 4.222553 9.877192 4
 5.793844 4.270030 10.063852 4
 6.001570 5.691066 11.692622 4
 6.202116 5.874313 12.076417 4
 6.049241 5.823913 11.873142 4
 5.733994 5.716205 11.450198 4
 5.693315 5.570797 11.264107 4
 6.425797 5.666373 12.092147 4
 7.937647 5.676692 13.614325 4
 6.917846 4.123974 11.041799 4
 8.795938 5.589827 14.385736 4
 8.834460 5.291018 14.125454 4
 8.045205 4.134794 12.179991 4
 7.949552 4.167972 12.117511 4
 9.153767 5.622250 14.775999 4
 6.748885 3.832602 10.581458 4
 7.739520 3.436522 11.176035 4
 7.909980 4.274614 12.184577 4
 4.835374 3.996528 8.831884 4
 7.711292 6.550242 14.261515 4
 7.766601 6.415366 14.181948 4
 6.107842 5.934070 12.041895 4
 8.875700 6.782248 15.657917 4
 9.000566 6.760541 15.761071 4
 8.784682 6.896964 15.681622 4
 8.725403 6.775643 15.501013 4
 9.336540 5.877294 15.213817 4
 10.000000 5.972222 15.972221 4
 9.890016 6.067082 15.957096 4
 9.884097 5.897996 15.782090 4
 9.088025 3.957970 13.045971 4
 6.644121 4.409723 11.053827 4
 7.124539 3.959820 11.084341 4
 5.611839 4.572730 10.184556 4
 7.010106 4.599801 11.609886 4
 8.494654 4.948745 13.443383 4
 5.330670 3.718760 9.049397 4
 5.229077 3.752170 8.981220 4
 5.748894 3.857811 9.606684 4
 6.408441 5.539903 11.948323 4
 6.460124 3.478721 9.938828 4
 5.608884 5.769507 11.378387 4
 8.432581 3.883755 12.316325 4
 7.879289 3.139514 11.018788 4
 7.888206 3.296390 11.184593 4
 7.778308 3.199289 10.977589 4
 5.000618 3.700143 8.700731 4
 5.123907 3.795362 8.919241 4
 5.672415 3.443717 9.116099 4
 9.476225 5.378482 14.854694 4
 7.544069 4.540211 12.084258 4
 7.431479 4.611162 12.042621 4
 9.197598 3.915571 13.113150 4
 6.062716 5.543975 11.606673 4
 8.877501 5.404268 14.281740 4
 8.761273 5.468201 14.229451 4
 7.543818 4.675114 12.218914 4
 7.428025 4.762900 12.190906 4
 9.486578 3.959123 13.445689 4
 6.045297 6.091761 12.137047 4
 7.316336 5.349784 12.666103 4
 8.984689 6.868281 15.852947 4
 9.894346 5.389453 15.283804 4
 7.112624 5.953517 13.066124 4
 7.184696 3.631456 10.816137 4
 4.931655 3.792191 8.723811 4
 9.104176 3.726347 12.830500 4
 9.389493 3.941152 13.330626 4
 6.900465 4.703477 11.603924 4
 8.697927 4.067390 12.765294 4
 8.621064 4.148262 12.769311 4
 8.538924 4.070376 12.609289 4
 9.240016 5.359257 14.599250 4
 6.015033 4.338188 10.353204 4
 6.133647 4.350860 10.484495 4
 6.042073 4.442723 10.484781 4
 5.126162 5.097726 10.223889 4
 8.901613 6.914772 15.816359 4
 7.447333 3.485706 10.933031 4
 7.110127 4.224920 11.335017 4
 9.408763 4.670970 14.079720 4
 9.303288 4.563451 13.866722 4
 9.457863 4.560836 14.018686 4
 9.392477 4.455444 13.847909 4
 8.717920 3.878421 12.596326 4
 9.557239 5.283425 14.840650 4
 8.297964 5.907558 14.205505 4
 8.764432 4.697741 13.462157 4
 8.626511 5.438052 14.064532 4
 8.739789 5.350778 14.090541 4
 8.053024 5.415451 13.468469 4
 8.133616 5.564425 13.698027 4
 5.957688 6.180433 12.138113 4
 5.353764 4.366374 9.720117 4
 5.331782 4.453492 9.785260 4
 5.237947 4.414595 9.652524 4
 7.801664 4.312671 12.114318 4
 6.103865 3.968939 10.072788 4
 9.647109 5.717340 15.364439 4
 7.579435 4.927200 12.506612 4
 9.346112 6.510459 15.856552 4
 9.334600 6.631521 15.966107 4
 6.455020 3.605576 10.060573 4
 6.618520 5.443135 12.061640 4
 9.124958 4.842820 13.967758 4
 5.261233 5.065129 10.326355 4
 5.372214 4.965160 10.337371 4
 5.429159 5.090853 10.520007 4
 5.769532 3.529817 9.299316 4
 7.839534 3.393071 11.232599 4
 7.204153 3.827495 11.031625 4
 6.091345 5.299238 11.390573 4
 7.083027 3.295975 10.378980 4
 6.177589 3.490413 9.667978 4
 7.971704 3.223093 11.194786 4
 8.711639 4.780706 13.492331 4
 8.196648 5.955211 14.151844 4
 7.698123 6.095406 13.793509 4
 7.019033 5.579883 12.598897 4
 5.292158 4.288077 9.580220 4
 6.922052 5.560655 12.482685 4
 5.770917 4.139910 9.910812 4
 5.545734 5.434110 10.979835 4
 5.721786 4.621486 10.343249 4
 5.838165 4.542286 10.380431 4
 8.508940 4.682758 13.191685 4
 8.648938 4.663811 13.312730 4
 7.080760 3.837439 10.918181 4
 7.151046 3.739827 10.890855 4
 7.082345 3.659046 10.741369 4
 9.218525 5.468232 14.686728 4
 8.912887 4.440127 13.352993 4
 5.375283 5.875870 11.251154 4
 5.307677 5.989727 11.297399 4
 6.248830 4.009155 10.257971 4
 7.387219 5.170876 12.558073 4
 9.035439 4.143056 13.178478 4
 9.851737 3.745319 13.597046 4
 7.876116 6.314047 14.190143 4
 6.330319 3.680072 10.010375 4
 7.873680 6.415968 14.289635 4
 8.688021 5.006658 13.694654 4
 6.346057 3.572299 9.918332 4
 6.348061 3.445958 9.794003 4
 7.428337 5.656695 13.085011 4
 7.695502 4.225101 11.920590 4
 6.236439 5.984707 12.221136 4
 8.282659 4.921088 13.203730 4
 7.871242 4.409590 12.280823 4
 10.000000 4.444445 14.444445 4
 9.895347 4.543991 14.439335 4
 10.000000 5.694445 15.694445 4
 8.237376 6.574747 14.812109 4
 8.260412 6.466754 14.727147 4
 8.372476 6.533932 14.906385 4
 8.117463 4.823249 12.940696 4
 4.910671 4.378747 9.289402 4
 7.008394 4.908817 11.917190 4
 7.447411 5.545475 12.992870 4
 7.343417 5.616569 12.959963 4
 6.177315 4.920896 11.098182 4
 6.246135 5.013011 11.259126 4
 7.363416 3.152739 10.516145 4
 5.466787 5.362625 10.829407 4
 8.737043 5.234947 13.971963 4
 5.353297 4.189147 9.542430 4
 5.444251 4.126675 9.570903 4
 5.430542 4.274333 9.704869 4
 5.549659 4.177384 9.727026 4
 7.009689 4.730780 11.740458 4
 7.348605 4.683610 12.032193 4
 10.000000 3.750000 13.750000 4
 9.397194 4.033442 13.430621 4
 6.552555 5.914373 12.466909 4
 6.448441 5.864358 12.312780 4
 6.516156 5.774285 12.290424 4
 7.175807 4.768098 11.943892 4
 7.925807 5.372638 13.298435 4
 7.976167 5.274621 13.250773 4
 6.634635 4.507141 11.141750 4
 9.786703 5.994103 15.780800 4
 7.706547 3.940217 11.646753 4
 5.622384 5.656478 11.278864 4
 6.643902 5.788945 12.432831 4
 8.547714 5.569932 14.117620 4
 8.336599 3.943409 12.280004 4
 5.267864 5.847190 11.115053 4
 5.149359 5.806612 10.955977 4
 7.180489 5.198416 12.378883 4
 7.730455 3.088658 10.819109 4
 7.657597 3.226219 10.883812 4
 7.582279 3.102443 10.684712 4
 8.370759 6.427242 14.797982 4
 8.471024 6.393604 14.864615 4
 9.161214 5.261732 14.422915 4
 9.048803 5.312334 14.361119 4
 9.491364 3.504400 12.995757 4
 9.370563 3.484943 12.855502 4
 9.097701 3.842282 12.939962 4
 8.071892 6.321529 14.393405 4
 8.648626 6.277834 14.926439 4
 4.769167 3.354741 8.123873 4
 8.164157 4.693324 12.857466 4
 8.675888 5.541084 14.216951 4
 5.729296 3.741757 9.471023 4
 5.351101 5.778658 11.129758 4
 9.428583 6.433308 15.861884 4
 8.086248 5.279668 13.365911 4
 5.461146 4.733736 10.194871 4
 7.971057 4.363525 12.334566 4
 6.784701 3.180450 9.965132 4
 6.655578 3.156748 9.812298 4
 6.763456 3.051121 9.814556 4
 4.836103 4.272596 9.108678 4
 7.291842 5.136604 12.428424 4
 7.787888 3.623500 11.411377 4
 10.000000 4.305555 14.305555 4
 9.896297 4.188107 14.084410 4
 7.102363 5.654710 12.757051 4
 7.083399 5.771421 12.854805 4
 6.441395 4.412462 10.853835 4
 7.574619 3.319385 10.893994 4
 6.839843 4.438451 11.278277 4
 6.972481 5.823722 12.796189 4
 10.000000 3.888889 13.888889 4
 9.328944 3.606921 12.935853 4
 6.122160 4.639272 10.761406 4
 9.785014 3.612837 13.397847 4
 5.557873 5.064461 10.622324 4
 8.516747 6.686068 15.202795 4
 8.661390 6.660290 15.321656 4
 7.965806 5.893101 13.858889 4
 8.087477 5.855208 13.942666 4
 8.088157 5.952601 14.040738 4
 8.012184 6.007595 14.019770 4
 9.289888 4.673587 13.963460 4
 6.618821 6.336739 12.955552 4
 5.843804 3.761670 9.605452 4
 9.775592 6.264836 16.040413 4
 9.515800 4.473945 13.989739 4
 7.797813 4.871843 12.669639 4
 7.089032 5.409372 12.498384 4
 5.704483 6.374544 12.079025 4
 5.778348 6.292717 12.071067 4
 5.842587 6.430380 12.272966 4
 5.895851 6.288805 12.184653 4
 7.118725 5.312184 12.430883 4
 10.000000 4.861111 14.861111 4
 10.000000 5.000000 15.000000 4
 9.878259 4.909756 14.788013 4
 10.000000 4.583333 14.583333 4
 10.000000 4.722222 14.722221 4
 9.880175 4.672441 14.552618 4
 8.391885 5.929610 14.321473 4
 6.332316 5.886735 12.219031 4
 7.224258 5.305674 12.529912 4
 8.079580 3.432795 11.512360 4