TITLE      =  "2D FE Unstructured grid data" 
VARIABLES = "X", "Y", "U", "Dom" 
ZONE T="P1", F=FEPOINT, N= 1184 E= 2222  ET=TRIANGLE 
 5.221864 8.314909 13.536805 2
 5.194563 8.453780 13.648361 2
 5.103426 8.308444 13.411907 2
 5.039473 8.409187 13.448690 2
 4.843771 7.742307 12.586129 2
 4.766234 7.666049 12.432335 2
 4.942622 7.631082 12.573748 2
 4.792192 8.827494 13.619705 2
 4.900336 8.739722 13.640079 2
 4.900708 8.889679 13.790400 2
 5.018963 8.822566 13.841540 2
 2.457381 7.696479 10.153946 2
 2.330687 7.682017 10.012793 2
 2.433056 7.563674 9.996819 2
 4.518532 9.039821 13.558368 2
 4.623083 9.182564 13.805654 2
 4.474886 9.182805 13.657704 2
 4.643481 9.022559 13.666055 2
 0.804761 8.931736 9.736535 2
 0.883450 9.033758 9.917242 2
 0.731714 9.012262 9.744006 2
 4.821928 7.549235 12.371212 2
 3.984750 9.683025 13.667790 2
 4.081141 9.703469 13.784623 2
 3.991364 9.808573 13.799953 2
 2.215323 8.693197 10.908584 2
 2.352635 8.589117 10.941821 2
 2.338058 8.714190 11.052314 2
 3.044516 8.797724 11.842301 2
 2.927110 8.801484 11.728656 2
 2.978158 8.659540 11.637768 2
 0.813117 9.117463 9.930611 2
 3.125738 8.723030 11.848829 2
 4.154042 9.791286 13.945332 2
 1.305696 7.883720 9.189468 2
 1.208009 7.992225 9.200288 2
 1.205268 7.860732 9.066042 2
 2.534269 7.374473 9.908828 2
 2.443488 7.311311 9.754894 2
 2.579876 7.256678 9.836654 2
 2.255517 8.547160 10.802749 2
 2.511587 9.677944 12.189546 2
 2.365838 9.722083 12.087935 2
 2.355013 9.581230 11.936260 2
 3.642383 7.890832 11.533293 2
 3.511250 7.910295 11.421622 2
 3.556786 7.772664 11.329531 2
 3.421979 7.817657 11.239724 2
 0.586217 8.671837 9.258085 2
 0.717139 8.653090 9.370259 2
 0.688054 8.781419 9.469504 2
 2.282214 7.583952 9.866251 2
 4.690049 8.661431 13.351508 2
 4.815514 8.530622 13.346160 2
 4.799302 8.686742 13.486068 2
 4.711200 8.307444 13.018686 2
 4.741633 8.163024 12.904704 2
 4.860852 8.234040 13.094932 2
 0.510559 7.108503 7.619082 2
 0.395163 7.165545 7.560727 2
 0.409375 7.016966 7.426360 2
 2.389450 8.917956 11.307467 2
 2.507951 8.842249 11.350261 2
 2.535382 9.000408 11.535851 2
 3.948256 8.299196 12.247514 2
 3.843820 8.384261 12.228141 2
 3.843518 8.238039 12.081618 2
 3.734205 8.298347 12.032619 2
 0.600051 9.442334 10.042401 2
 0.625002 9.593052 10.218064 2
 0.495180 9.502041 9.997227 2
 2.305840 7.476904 9.782827 2
 2.232544 9.342650 11.575235 2
 2.231482 9.477139 11.708646 2
 2.118436 9.423791 11.542251 2
 4.835890 8.349513 13.185439 2
 0.559112 6.615945 7.175082 2
 0.663739 6.708256 7.372028 2
 0.514937 6.747599 7.262561 2
 3.850071 9.739372 13.589454 2
 2.107061 8.657786 10.764915 2
 2.156330 8.559928 10.716331 2
 5.033668 8.974723 14.008398 2
 4.887443 9.018431 13.905892 2
 0.302012 7.781382 8.083409 2
 0.448479 7.727332 8.175827 2
 0.365202 7.918355 8.283572 2
 0.518228 7.867599 8.385850 2
 5.160952 8.874516 14.035478 2
 5.117629 9.121278 14.238913 2
 5.054770 9.226753 14.281533 2
 4.976250 9.108380 14.084641 2
 0.441684 9.357429 9.799129 2
 0.279594 9.434204 9.713803 2
 0.296961 9.314909 9.611870 2
 4.595613 8.187726 12.783382 2
 4.511151 8.049745 12.560956 2
 4.657690 8.056572 12.714322 2
 2.988788 8.221578 11.210437 2
 2.848468 8.223381 11.071929 2
 2.938308 8.067600 11.005990 2
 3.081775 8.353309 11.435159 2
 2.937531 8.385432 11.323036 2
 2.634778 9.100739 11.735571 2
 2.751874 9.095387 11.847316 2
 2.661494 9.223904 11.885435 2
 2.417764 7.184912 9.602767 2
 3.611111 10.000000 13.611111 2
 3.472222 10.000000 13.472222 2
 3.516792 9.854188 13.370985 2
 2.809457 9.542949 12.352425 2
 2.863925 9.418609 12.282568 2
 2.953662 9.542715 12.496400 2
 2.807078 9.202169 12.009288 2
 0.376853 9.485054 9.861919 2
 0.858725 8.722531 9.581297 2
 1.021079 8.803075 9.824191 2
 0.926489 8.895859 9.822387 2
 1.353558 7.981986 9.335594 2
 0.722314 9.520363 10.242695 2
 4.543251 6.941085 11.484384 2
 4.651010 6.849020 11.500082 2
 4.676975 7.006541 11.683563 2
 3.641623 9.892745 13.534371 2
 3.711240 7.702978 11.414295 2
 3.753700 7.593210 11.346992 2
 3.852340 7.744352 11.596770 2
 2.456092 9.784729 12.240840 2
 1.666667 10.000000 11.666667 2
 1.527778 10.000000 11.527778 2
 1.576167 9.835144 11.411320 2
 0.000000 8.472222 8.472222 2
 0.000000 8.333333 8.333333 2
 0.166292 8.423943 8.590247 2
 3.880420 7.593835 11.474338 2
 0.206973 7.973966 8.180943 2
 0.290860 8.070413 8.361289 2
 2.601451 8.230957 10.832488 2
 2.705326 8.289047 10.994454 2
 2.563487 8.380516 10.944081 2
 4.992723 9.561673 14.554397 2
 4.955625 9.444233 14.399866 2
 5.100862 9.495233 14.596105 2
 5.104562 9.353175 14.457738 2
 3.099504 7.861408 10.960999 2
 3.087139 7.754130 10.841358 2
 3.246407 7.816896 11.063389 2
 3.455959 8.054653 11.510685 2
 3.603015 8.014289 11.617380 2
 3.522590 8.166489 11.689144 2
 2.826501 8.085840 10.912428 2
 3.357792 9.078940 12.436775 2
 3.207491 9.144413 12.351954 2
 3.270567 9.026120 12.296735 2
 2.580719 9.428445 12.009195 2
 2.584457 9.302958 11.887450 2
 2.726588 9.342508 12.069126 2
 2.313748 7.309247 9.623087 2
 2.418204 7.433827 9.852116 2
 2.583979 7.497101 10.081175 2
 2.759440 7.514537 10.274070 2
 2.666480 7.624243 10.290812 2
 4.134202 8.347101 12.481355 2
 3.981994 8.390379 12.372434 2
 4.054682 8.266901 12.321639 2
 3.600476 8.706468 12.306996 2
 3.692692 8.572439 12.265190 2
 3.757893 8.727348 12.485282 2
 1.499858 7.947772 9.447691 2
 1.398136 7.838314 9.236512 2
 1.805556 10.000000 11.805556 2
 1.737316 9.870559 11.607880 2
 1.903461 9.864985 11.768461 2
 0.000000 8.194445 8.194445 2
 0.133506 8.090914 8.224427 2
 0.127202 8.260216 8.387425 2
 1.508334 8.189949 9.698347 2
 1.644398 8.157336 9.801797 2
 1.585124 8.273692 9.858879 2
 1.707647 8.287313 9.995027 2
 3.167779 7.683233 10.851099 2
 1.970951 8.965046 10.936045 2
 1.824499 9.015575 10.840117 2
 1.870443 8.844454 10.714946 2
 1.761035 8.899155 10.660241 2
 5.326624 8.394687 13.721329 2
 2.824404 7.342330 10.166830 2
 2.669007 7.374741 10.043843 2
 1.085593 8.281207 9.366846 2
 1.211066 8.256941 9.468053 2
 1.196026 8.392241 9.588313 2
 0.577212 8.273679 8.850924 2
 0.521991 8.149955 8.671966 2
 0.693256 8.164474 8.857762 2
 2.339659 9.421269 11.760954 2
 0.812300 7.631135 8.443472 2
 0.853759 7.789952 8.643748 2
 0.733534 7.748320 8.481882 2
 0.540023 7.005441 7.545487 2
 3.350409 9.182704 12.533139 2
 4.176283 7.510770 11.687121 2
 4.021476 7.534031 11.555582 2
 4.107207 7.367772 11.475051 2
 3.968200 7.421478 11.389766 2
 2.908478 7.476202 10.384776 2
 0.304373 6.188498 6.492885 2
 0.458075 6.124873 6.582967 2
 0.439970 6.285912 6.725901 2
 2.610155 8.909194 11.519411 2
 3.841172 8.600904 12.442122 2
 3.907595 8.740753 12.648391 2
 3.835572 8.882611 12.718222 2
 2.684485 8.547401 11.231959 2
 2.845678 8.557736 11.403484 2
 2.742036 8.654783 11.396891 2
 0.000000 6.805555 6.805555 2
 0.124206 6.674959 6.799171 2
 0.168758 6.780949 6.949710 2
 4.007149 7.706590 11.713817 2
 1.388889 10.000000 11.388889 2
 1.286949 9.850028 11.136986 2
 1.458333 9.900642 11.358977 2
 0.000000 8.611111 8.611111 2
 0.099357 8.541667 8.641025 2
 0.149972 8.713051 8.863026 2
 4.928938 8.408052 13.337013 2
 2.753611 9.666281 12.419910 2
 2.642692 9.569966 12.212685 2
 0.354021 7.393651 7.747687 2
 0.435442 7.313666 7.749126 2
 0.446700 7.459182 7.905900 2
 2.685320 8.413293 11.098689 2
 0.000000 9.166667 9.166667 2
 0.123921 9.056075 9.179996 2
 0.118748 9.221499 9.340259 2
 0.833333 10.000000 10.833333 2
 0.771428 9.881005 10.652437 2
 0.952749 9.878537 10.831287 2
 3.245531 7.230278 10.475906 2
 3.155838 7.313945 10.469877 2
 3.091022 7.181091 10.272206 2
 3.426557 8.510435 11.937052 2
 3.487289 8.414026 11.901379 2
 3.542542 8.558068 12.100665 2
 3.612251 8.459483 12.071788 2
 0.738248 7.897949 8.636220 2
 0.613699 7.946341 8.560066 2
 0.604607 7.778429 8.383065 2
 0.511959 9.611855 10.123816 2
 0.402159 6.651262 7.053441 2
 4.752560 9.091887 13.844454 2
 4.753585 9.217464 13.971061 2
 2.952770 7.357646 10.310513 2
 3.067519 7.422348 10.489962 2
 4.921981 8.624599 13.546605 2
 5.494482 9.751087 15.245564 2
 5.389594 9.632672 15.022265 2
 5.532137 9.655560 15.187697 2
 2.796300 8.460410 11.256788 2
 2.210943 7.419106 9.630132 2
 0.803698 9.649410 10.453124 2
 0.678018 9.708518 10.386543 2
 4.255176 8.445662 12.700887 2
 4.310953 8.315970 12.626974 2
 5.317335 8.524278 13.841627 2
 3.030931 7.537596 10.568624 2
 3.045278 7.292064 10.337439 2
 3.892871 7.484823 11.377772 2
 5.214862 8.622054 13.836932 2
 5.107150 8.727748 13.834907 2
 5.044873 8.595980 13.640874 2
 0.624954 8.078673 8.703659 2
 3.215754 9.288006 12.503794 2
 3.364952 9.339704 12.704684 2
 4.374683 7.131568 11.506307 2
 4.237511 7.038578 11.276151 2
 4.349758 7.017886 11.367705 2
 3.637452 8.120075 11.757599 2
 0.210358 8.569089 8.779456 2
 0.309136 8.508445 8.817587 2
 0.578731 7.660341 8.239100 2
 0.515410 7.559653 8.075081 2
 2.523983 9.183787 11.707821 2
 1.616130 9.365771 10.981925 2
 1.769831 9.294094 11.063953 2
 1.730980 9.435247 11.166251 2
 0.261602 9.600441 9.862052 2
 3.714597 9.291065 13.005689 2
 3.848248 9.314283 13.162551 2
 3.702993 9.434791 13.137803 2
 3.857107 9.455001 13.312127 2
 0.400869 7.591715 7.992601 2
 4.050963 8.481641 12.532651 2
 4.659850 8.878281 13.538155 2
 4.771643 8.955138 13.726799 2
 4.218152 7.147321 11.365541 2
 2.799217 7.693826 10.493137 2
 2.923133 7.614957 10.538185 2
 1.590732 7.730081 9.320876 2
 1.716652 7.782197 9.498919 2
 1.610746 7.862753 9.473557 2
 4.145229 7.234875 11.380178 2
 4.059261 7.122772 11.182107 2
 0.339019 8.387820 8.726856 2
 5.248151 9.549439 14.797603 2
 5.089444 9.635806 14.725264 2
 5.225109 9.663507 14.888625 2
 4.864355 9.365487 14.229851 2
 4.799243 9.464533 14.263793 2
 1.189201 8.795759 9.985001 2
 1.113182 8.680849 9.794081 2
 0.758679 8.431259 9.189977 2
 0.733248 8.305851 9.039133 2
 0.866699 8.310026 9.176764 2
 4.813176 7.911351 12.724585 2
 4.948983 7.864202 12.813239 2
 0.267082 8.277399 8.544497 2
 0.413076 8.244780 8.657881 2
 1.696259 8.602985 10.299304 2
 1.803862 8.695800 10.499717 2
 1.657487 8.728475 10.386014 2
 2.638889 10.000000 12.638889 2
 2.500000 10.000000 12.500000 2
 2.564223 9.843437 12.407670 2
 1.494142 8.765318 10.259508 2
 1.645896 8.843415 10.489360 2
 1.564363 8.918695 10.483099 2
 4.549316 8.906294 13.455636 2
 4.448827 8.208036 12.656912 2
 2.808614 7.168708 9.977416 2
 2.942381 7.236932 10.179409 2
 1.904055 7.879086 9.783219 2
 1.837587 7.992599 9.830254 2
 1.796929 7.883687 9.680680 2
 1.317680 8.269543 9.587272 2
 1.451239 8.326179 9.777472 2
 1.309117 8.378160 9.687335 2
 4.694573 8.537153 13.231758 2
 3.441815 8.638124 12.079999 2
 1.066928 8.429412 9.496391 2
 2.449164 9.443862 11.893052 2
 3.928511 9.222762 13.151300 2
 4.074122 9.245570 13.319715 2
 4.003203 9.356768 13.359993 2
 4.888464 9.546127 14.434603 2
 4.344721 9.139347 13.484081 2
 4.397971 9.039911 13.437901 2
 3.484770 8.751163 12.235981 2
 1.961229 7.996693 9.957997 2
 0.191461 9.510171 9.701633 2
 5.397138 9.790697 15.187837 2
 1.398905 8.200853 9.599814 2
 0.607504 6.824253 7.431782 2
 1.103121 8.910573 10.013740 2
 5.040743 7.991185 13.031977 2
 5.087064 7.877637 12.964740 2
 3.326754 8.652893 11.979710 2
 3.258701 8.765776 12.024537 2
 3.199464 8.588102 11.787639 2
 1.767289 8.201658 9.969011 2
 0.247466 7.171700 7.419174 2
 0.311634 7.287780 7.599429 2
 0.190436 7.302215 7.492657 2
 3.862267 9.882134 13.744411 2
 1.500886 7.797293 9.298242 2
 0.950514 7.675474 8.626020 2
 3.039750 9.448254 12.488029 2
 3.510660 7.636990 11.147744 2
 3.447775 7.505364 10.953231 2
 3.627092 7.551364 11.178545 2
 3.559541 7.424548 10.984172 2
 2.654395 8.768534 11.422994 2
 2.535372 8.717549 11.252987 2
 2.466010 8.508545 10.974627 2
 2.438167 8.359035 10.797278 2
 1.592797 9.097786 10.690625 2
 1.669018 9.221201 10.890265 2
 1.548165 9.241406 10.789612 2
 4.557470 9.579404 14.136888 2
 4.409207 9.553614 13.962833 2
 4.558940 9.462377 14.021326 2
 4.451516 9.419845 13.871381 2
 0.124253 7.204134 7.328393 2
 3.667729 8.858192 12.525963 2
 0.616477 8.393044 9.009552 2
 0.473950 8.361743 8.835716 2
 5.087629 7.126500 12.214161 2
 5.238856 7.112688 12.351573 2
 5.122115 7.262406 12.384566 2
 5.279744 7.252313 12.532087 2
 0.795406 8.565123 9.360565 2
 0.908448 8.586155 9.494652 2
 0.411077 9.591169 10.002246 2
 3.031659 8.517939 11.549666 2
 1.250000 10.000000 11.250000 2
 0.000000 8.750000 8.750000 2
 0.883070 7.929007 8.812114 2
 0.997349 7.815324 8.812708 2
 1.146914 7.747867 8.894830 2
 1.091823 7.907299 8.999171 2
 1.258960 7.182138 8.441145 2
 1.125977 7.093374 8.219399 2
 1.247292 7.029595 8.276945 2
 0.546415 8.787341 9.333783 2
 0.990099 8.657994 9.648141 2
 4.534422 7.490746 12.025229 2
 4.536436 7.376394 11.912885 2
 4.672927 7.475581 12.148557 2
 4.652640 7.350923 12.003615 2
 2.703299 9.902945 12.606250 2
 1.687510 7.652841 9.340416 2
 0.142591 9.655199 9.797789 2
 0.283525 9.728330 10.011851 2
 3.131418 8.196046 11.327540 2
 1.464331 9.149743 10.614112 2
 2.318282 8.054093 10.372461 2
 2.336846 7.907362 10.244289 2
 2.449202 7.997257 10.446541 2
 1.402143 8.440618 9.842818 2
 0.196901 9.803100 10.000010 2
 1.965205 8.701877 10.667142 2
 1.431722 9.788975 11.220703 2
 1.492050 9.689928 11.181994 2
 1.728744 8.439555 10.168361 2
 1.596820 8.391994 9.988873 2
 4.834458 7.281233 12.115735 2
 4.974308 7.230979 12.205329 2
 4.991446 7.348893 12.340381 2
 1.118547 7.236432 8.355027 2
 1.287874 8.131318 9.419249 2
 4.635546 8.455350 13.090940 2
 4.588533 8.601883 13.190449 2
 4.478090 8.516355 12.994482 2
 2.307197 8.331261 10.638533 2
 2.310130 8.199123 10.509327 2
 2.416319 8.226562 10.642963 2
 0.864869 8.475965 9.340877 2
 0.555792 6.480118 7.035933 2
 0.661663 6.433148 7.094843 2
 0.692328 6.567451 7.259813 2
 4.973298 8.502631 13.475953 2
 4.180976 9.319201 13.500192 2
 4.115375 9.448175 13.563561 2
 3.063891 7.641549 10.705524 2
 1.561748 8.649764 10.211567 2
 2.198971 7.963866 10.162915 2
 1.608491 9.667698 11.276201 2
 0.000000 7.777778 7.777778 2
 0.000000 7.638889 7.638889 2
 0.155138 7.724136 7.879283 2
 4.743224 8.436479 13.179737 2
 4.900292 7.423846 12.324183 2
 0.553257 7.346814 7.900095 2
 0.094249 7.569445 7.663697 2
 2.881615 9.660957 12.542591 2
 2.809819 8.748355 11.558247 2
 2.774133 8.871576 11.645768 2
 2.906578 8.940297 11.846932 2
 4.911258 9.657254 14.568514 2
 0.526764 8.467170 8.993962 2
 4.263486 9.510584 13.774079 2
 4.325822 9.399570 13.725411 2
 4.576108 7.607667 12.183832 2
 0.293526 8.784400 9.077936 2
 0.441780 8.860373 9.302172 2
 0.333250 8.930343 9.263606 2
 3.910711 9.593875 13.504601 2
 1.181810 8.551363 9.733221 2
 1.220491 8.689522 9.910062 2
 2.207673 8.252357 10.460104 2
 2.991874 7.710558 10.702525 2
 1.596348 8.519858 10.116262 2
 4.386937 7.957093 12.344089 2
 4.280149 8.028477 12.308681 2
 4.251044 7.871155 12.122264 2
 4.974689 6.722596 11.697322 2
 4.848577 6.738701 11.587318 2
 4.914988 6.591507 11.506527 2
 2.507870 9.539163 12.047058 2
 3.474867 9.459817 12.934716 2
 3.348336 9.496619 12.844980 2
 3.496610 9.345310 12.841946 2
 4.938622 9.210174 14.148807 2
 2.705582 9.795480 12.501076 2
 2.643671 9.691219 12.334908 2
 4.341845 9.257669 13.599536 2
 1.544884 8.074590 9.619534 2
 2.218618 9.697988 11.916619 2
 2.203887 9.583989 11.787903 2
 4.121198 7.040025 11.161295 2
 1.334896 9.444846 10.779760 2
 1.348866 9.335640 10.684535 2
 1.469599 9.466022 10.935643 2
 2.222222 10.000000 12.222222 2
 2.083333 10.000000 12.083333 2
 2.155257 9.869110 12.024373 2
 4.711037 7.794382 12.505467 2
 0.506783 7.991428 8.498231 2
 1.497565 9.348309 10.845897 2
 4.598866 7.059680 11.658603 2
 1.071089 8.570249 9.641384 2
 4.079746 9.898533 13.978284 2
 3.463461 9.594523 13.058007 2
 3.323871 9.619709 12.943605 2
 3.404548 9.731742 13.136308 2
 2.944302 7.070577 10.014973 2
 4.083990 8.923274 13.007298 2
 3.944699 8.990733 12.935464 2
 3.989815 8.849579 12.839433 2
 2.388564 9.077755 11.466375 2
 4.971705 8.284924 13.256667 2
 4.976001 8.131276 13.107323 2
 0.323862 6.067037 6.390916 2
 1.684391 8.982583 10.667022 2
 5.019590 9.767318 14.786908 2
 0.000000 6.666667 6.666667 2
 2.793774 7.994339 10.788199 2
 2.686939 7.956045 10.643075 2
 2.792672 7.848142 10.640903 2
 0.283384 7.047626 7.331022 2
 3.754241 9.597116 13.351374 2
 3.162837 7.963872 11.126791 2
 3.595502 9.551279 13.146808 2
 3.532054 9.698666 13.230735 2
 1.361718 8.903855 10.265618 2
 1.337824 8.769677 10.107553 2
 1.458961 8.869428 10.328430 2
 3.990979 9.487936 13.478936 2
 4.346334 9.701820 14.048167 2
 4.437894 9.836925 14.274822 2
 4.289364 9.844871 14.134244 2
 2.930575 9.774561 12.705161 2
 3.023593 9.671023 12.694632 2
 3.057844 9.830734 12.888598 2
 2.740686 8.172968 10.913740 2
 0.465655 6.555604 7.021280 2
 1.015840 6.738435 7.754319 2
 0.987395 6.885596 7.873029 2
 0.886363 6.750875 7.637280 2
 0.414963 8.071552 8.486536 2
 4.468042 7.715165 12.183272 2
 4.502781 7.876628 12.379466 2
 4.367325 7.805503 12.172895 2
 2.023131 9.905187 11.928323 2
 0.356034 9.675016 10.031054 2
 1.802797 9.755301 11.558110 2
 0.225961 8.181989 8.407960 2
 0.211318 9.131266 9.342590 2
 0.294735 9.054495 9.349241 2
 0.369858 9.189230 9.559104 2
 4.584562 7.758676 12.343296 2
 2.416075 8.773869 11.190014 2
 2.439552 8.650907 11.090527 2
 4.387048 8.081140 12.468252 2
 4.226120 9.176881 13.403023 2
 3.181200 9.641978 12.823201 2
 3.292801 9.734212 13.027025 2
 3.139652 9.752715 12.892385 2
 1.266389 7.642892 8.909333 2
 1.177508 7.507638 8.685198 2
 1.326424 7.547935 8.874417 2
 2.344554 8.463660 10.808285 2
 2.138381 9.518966 11.657372 2
 2.699648 8.977465 11.677173 2
 3.649877 9.659216 13.309113 2
 0.529079 9.213453 9.742548 2
 0.322388 8.169227 8.491636 2
 0.983326 8.514839 9.498211 2
 0.371069 6.795438 7.166521 2
 2.929271 8.493922 11.423265 2
 4.771996 6.822196 11.594240 2
 4.921848 6.875056 11.796942 2
 4.776976 6.939325 11.716349 2
 3.358270 9.867215 13.225488 2
 3.758244 7.836802 11.595122 2
 3.282170 7.982706 11.264957 2
 0.864530 9.786017 10.650551 2
 4.193398 8.227467 12.420919 2
 1.283737 7.430814 8.714605 2
 1.204557 7.331199 8.535810 2
 4.153456 7.978736 12.132260 2
 4.177986 8.088549 12.266598 2
 4.026791 8.054142 12.081001 2
 0.435687 8.704444 9.140144 2
 4.579339 9.775171 14.354516 2
 4.491577 9.682027 14.173615 2
 4.655893 9.654855 14.310755 2
 2.035455 7.380548 9.416080 2
 2.150744 7.318586 9.469412 2
 2.112930 7.459446 9.572456 2
 4.447915 8.350212 12.798175 2
 4.308178 8.162348 12.470586 2
 2.626130 8.127058 10.753268 2
 3.481774 7.339940 10.821796 2
 3.377903 7.389180 10.767180 2
 0.235199 7.868153 8.103362 2
 4.581967 7.159510 11.741531 2
 4.698600 7.260993 11.959642 2
 4.564543 7.276639 11.841235 2
 2.983458 9.338620 12.322115 2
 1.051147 8.044083 9.095282 2
 1.144988 8.142914 9.287954 2
 0.981902 8.191603 9.173551 2
 2.891120 7.950875 10.842073 2
 2.079071 7.912491 9.991634 2
 2.120774 7.803924 9.924772 2
 2.261610 7.806186 10.067877 2
 2.006415 7.842937 9.849422 2
 0.997649 7.156612 8.154298 2
 0.906328 7.288684 8.195051 2
 0.844803 7.132699 7.977537 2
 3.537035 9.225267 12.762329 2
 3.434815 9.243501 12.678347 2
 3.455557 9.105533 12.561120 2
 3.018186 7.962210 10.980482 2
 3.026406 8.119363 11.145853 2
 1.390459 7.691524 9.082034 2
 1.501852 7.678027 9.179945 2
 0.694444 10.000000 10.694444 2
 0.555556 10.000000 10.555556 2
 0.632514 9.850994 10.483517 2
 0.000000 9.444445 9.444445 2
 0.000000 9.305555 9.305555 2
 0.147830 9.363488 9.511325 2
 4.443876 8.669430 13.113341 2
 4.715678 7.142967 11.858696 2
 0.739847 7.167933 7.907811 2
 0.668488 7.268610 7.937125 2
 0.630688 7.118028 7.748739 2
 3.910329 7.913257 11.823659 2
 5.072101 8.187603 13.259735 2
 0.714316 9.402905 10.117241 2
 4.581558 8.759679 13.341262 2
 4.106899 8.169879 12.276841 2
 1.090806 7.389845 8.480688 2
 0.795127 8.045098 8.840262 2
 2.177634 8.374730 10.552434 2
 3.333333 10.000000 13.333333 2
 0.229289 9.240767 9.470059 2
 5.287799 9.750173 15.037965 2
 1.247027 9.296149 10.543211 2
 1.236969 9.439577 10.676565 2
 1.908202 7.358087 9.266364 2
 2.020253 7.267929 9.288268 2
 2.586080 7.112348 9.698525 2
 1.445282 9.003757 10.449068 2
 3.532003 8.938999 12.471047 2
 3.589677 9.086582 12.676299 2
 4.105875 9.132679 13.238584 2
 0.191008 8.946526 9.137540 2
 4.707977 7.588343 12.296376 2
 5.513700 9.525151 15.038856 2
 4.770649 7.392766 12.163465 2
 0.270356 6.722905 6.993275 2
 0.241087 6.594317 6.835416 2
 2.897183 9.084881 11.982108 2
 3.007979 9.034867 12.042899 2
 5.097023 7.394842 12.491897 2
 3.109078 8.066141 11.175301 2
 1.838712 9.384990 11.223734 2
 1.918479 9.271042 11.189548 2
 1.973748 9.426676 11.400454 2
 2.070018 9.313602 11.383662 2
 5.555555 10.000000 15.555555 2
 5.416667 10.000000 15.416667 2
 5.510119 9.866122 15.376245 2
 5.316194 8.940395 14.256594 2
 5.194096 9.013437 14.207539 2
 0.712002 9.129732 9.841765 2
 0.756333 7.376606 8.132971 2
 0.669728 7.526626 8.196384 2
 0.642332 7.395194 8.037554 2
 0.695885 8.017605 8.713520 2
 0.832334 8.181274 9.013654 2
 3.919438 7.045442 10.964960 2
 3.808242 7.139900 10.948229 2
 3.818640 6.978978 10.797698 2
 4.056133 9.035362 13.091516 2
 4.951414 7.741698 12.693151 2
 1.894796 8.283788 10.178646 2
 1.796368 8.333261 10.129697 2
 0.532266 7.220194 7.752482 2
 0.563854 7.457312 8.021194 2
 4.352052 8.542392 12.894485 2
 5.019200 7.792492 12.811736 2
 2.860039 9.305372 12.165449 2
 5.102235 8.506653 13.608905 2
 0.000000 7.361111 7.361111 2
 0.081500 7.298603 7.380105 2
 0.115371 7.430360 7.545733 2
 5.407197 9.504215 14.911415 2
 4.045402 7.234003 11.279479 2
 2.709552 9.461353 12.170933 2
 5.151985 9.824062 14.976052 2
 5.070296 9.897686 14.967979 2
 0.636902 8.530614 9.167544 2
 0.817945 9.228610 10.046585 2
 0.705682 9.281222 9.986922 2
 0.208464 7.574777 7.783252 2
 0.250566 7.417533 7.668109 2
 3.764626 7.978360 11.743064 2
 1.687356 9.755663 11.443034 2
 2.126284 8.081773 10.208131 2
 2.057845 8.012397 10.070323 2
 2.556417 7.605742 10.162244 2
 0.323471 7.516419 7.839902 2
 0.487094 9.909638 10.396732 2
 0.086995 9.513889 9.600887 2
 0.362887 6.551648 6.914554 2
 5.311906 9.455657 14.767572 2
 5.147015 9.724869 14.871881 2
 4.257246 8.596165 12.853449 2
 4.145428 8.562978 12.708452 2
 0.814496 7.491768 8.306295 2
 0.000000 6.250000 6.250000 2
 0.000000 6.111111 6.111111 2
 0.144028 6.180555 6.324588 2
 1.818970 9.167747 10.986753 2
 1.952648 9.115278 11.067967 2
 1.212820 9.693766 10.906601 2
 1.355126 9.675912 11.031046 2
 4.597871 7.963859 12.561782 2
 4.314149 8.687351 13.001532 2
 4.001079 8.619575 12.620699 2
 0.000000 7.500000 7.500000 2
 0.830477 9.369934 10.200432 2
 0.838538 9.499920 10.338476 2
 5.180929 8.201887 13.382854 2
 2.440898 7.840679 10.281658 2
 2.551204 7.791159 10.342443 2
 2.592933 7.696841 10.289865 2
 4.472039 8.800057 13.272121 2
 5.361442 9.235927 14.597364 2
 5.230484 9.305805 14.536294 2
 5.261732 9.161214 14.422947 2
 0.493726 8.971506 9.465250 2
 0.404042 9.048648 9.452708 2
 3.815947 9.000827 12.816811 2
 5.444541 9.386308 14.830852 2
 5.323923 9.351140 14.675072 2
 3.019313 8.927312 11.946680 2
 3.172261 8.877253 12.049562 2
 3.142503 9.012094 12.154642 2
 2.794759 8.349617 11.144458 2
 0.000000 9.722222 9.722222 2
 0.000000 9.583333 9.583333 2
 0.416667 10.000000 10.416667 2
 0.277778 10.000000 10.277778 2
 0.347068 9.865978 10.213052 2
 4.856603 7.145395 12.002045 2
 0.596528 6.329490 6.926047 2
 0.481959 6.387649 6.869626 2
 0.311214 6.299680 6.610910 2
 4.449424 9.311433 13.760873 2
 0.113225 6.883154 6.996384 2
 3.055556 10.000000 13.055556 2
 2.958133 9.896220 12.854366 2
 3.209192 8.323812 11.533073 2
 3.142920 8.472559 11.615551 2
 3.251038 8.433955 11.685064 2
 3.384366 7.927693 11.312146 2
 4.900376 8.008267 12.908692 2
 4.998565 8.691900 13.690482 2
 4.142662 7.770654 11.913386 2
 4.062350 7.835704 11.898131 2
 3.338727 8.074183 11.412993 2
 3.722469 9.726491 13.448967 2
 0.000000 7.083333 7.083333 2
 0.141202 7.079720 7.220927 2
 0.804992 8.836111 9.641141 2
 5.153835 9.233645 14.387485 2
 0.390550 8.588207 8.978772 2
 0.499662 8.572626 9.072316 2
 1.751417 7.973350 9.724836 2
 2.660093 7.848749 10.508926 2
 0.790186 7.268943 8.059161 2
 2.213852 8.122400 10.336336 2
 0.303171 7.658401 7.961586 2
 3.640723 8.979976 12.620734 2
 1.154797 9.368364 10.523190 2
 0.000000 7.222222 7.222222 2
 3.963344 8.167383 12.130795 2
 2.811066 8.983169 11.794290 2
 1.944444 10.000000 11.944444 2
 0.000000 8.055555 8.055555 2
 2.084858 8.479953 10.564886 2
 2.011927 8.365358 10.377348 2
 2.078767 7.666364 9.745209 2
 2.034003 7.560336 9.594415 2
 2.176873 7.551620 9.728577 2
 0.598355 8.906145 9.504526 2
 3.081324 9.268017 12.349383 2
 3.041671 9.147126 12.188839 2
 1.860916 8.142054 10.003043 2
 2.010645 8.122132 10.132859 2
 4.872307 7.020385 11.892733 2
 2.029161 9.791840 11.821003 2
 4.252996 7.294376 11.547442 2
 4.354853 7.244166 11.599077 2
 5.215716 9.421371 14.637093 2
 1.497397 8.567036 10.064485 2
 2.864630 8.666462 11.531166 2
 4.106539 8.681413 12.787992 2
 5.389453 9.894346 15.283800 2
 3.269875 8.919956 12.189878 2
 5.020481 7.500053 12.520576 2
 1.155098 7.636156 8.791306 2
 4.783399 8.029253 12.812702 2
 0.984513 8.316355 9.300913 2
 4.859877 9.151567 14.011452 2
 5.001524 7.020991 12.022553 2
 5.076235 6.911542 11.987815 2
 1.030836 9.115532 10.146404 2
 1.126290 9.230981 10.357306 2
 1.010762 9.226134 10.236927 2
 0.929986 7.017158 7.947184 2
 0.862778 6.878037 7.740851 2
 0.804398 6.970953 7.775386 2
 0.115023 7.874085 7.989117 2
 3.349836 7.708594 11.058520 2
 2.578987 8.492351 11.071417 2
 1.126392 6.947610 8.074048 2
 4.368837 8.434118 12.803003 2
 0.972222 10.000000 10.972222 2
 0.000000 9.027778 9.027778 2
 2.055979 8.579137 10.635187 2
 3.715698 8.424626 12.140378 2
 2.559854 7.907807 10.467746 2
 2.580730 8.027303 10.608114 2
 2.019666 8.846539 10.866265 2
 3.263058 7.656786 10.919935 2
 0.996799 7.950277 8.947118 2
 2.508919 8.137167 10.646165 2
 0.492241 9.801861 10.294110 2
 4.531622 8.420821 12.952480 2
 2.074688 8.746455 10.821200 2
 4.562901 8.315740 12.878689 2
 0.930958 7.556477 8.487476 2
 2.018899 9.223706 11.242650 2
 1.004662 8.995338 10.000042 2
 4.031507 7.932813 11.964394 2
 1.463472 7.365602 8.829141 2
 1.630993 7.365955 8.997019 2
 1.532278 7.479693 9.012033 2
 1.878052 8.432953 10.311069 2
 1.824728 8.560706 10.385493 2
 0.664117 6.992033 7.656173 2
 0.692460 6.894339 7.586831 2
 3.953669 7.810437 11.764175 2
 0.768840 6.814992 7.583864 2
 0.799684 6.671224 7.470944 2
 4.921330 7.526054 12.447425 2
 0.323504 6.922027 7.245546 2
 0.479855 6.892079 7.371953 2
 3.668547 7.791031 11.459666 2
 1.973966 7.465500 9.439542 2
 1.747745 8.802259 10.550056 2
 0.736771 7.076329 7.813128 2
 3.995246 9.121576 13.116851 2
 1.155032 9.125547 10.280615 2
 4.852577 8.123547 12.976171 2
 1.040813 7.011794 8.052654 2
 3.745319 9.851737 13.597061 2
 4.963239 7.116050 12.079338 2
 2.916667 10.000000 12.916667 2
 2.777778 10.000000 12.777778 2
 2.830021 9.875804 12.705827 2
 3.155647 9.894982 13.050641 2
 3.755050 7.484173 11.239312 2
 3.678781 7.358489 11.037357 2
 3.839210 7.390600 11.229894 2
 1.623189 9.519094 11.142305 2
 0.964521 9.713545 10.678071 2
 0.954280 9.592237 10.546539 2
 1.942917 9.574646 11.517578 2
 2.075941 9.644622 11.720583 2
 1.928411 9.705174 11.633598 2
 4.444445 10.000000 14.444445 2
 4.543991 9.895347 14.439339 2
 2.359423 7.771815 10.131321 2
 1.263118 8.884799 10.147962 2
 3.345575 8.847124 12.192755 2
 1.675653 7.515348 9.191068 2
 1.761743 7.409687 9.171495 2
 1.793636 7.572269 9.365975 2
 1.862727 7.473275 9.336075 2
 2.197724 9.016069 11.213848 2
 2.107676 8.934102 11.041832 2
 2.247982 8.912095 11.160124 2
 2.158822 8.828609 10.987494 2
 2.209255 7.681920 9.891259 2
 5.215215 8.747265 13.962489 2
 3.750000 10.000000 13.750000 2
 3.312670 8.536125 11.848863 2
 4.250460 8.816812 13.067307 2
 4.368865 8.786231 13.155126 2
 4.325902 8.925805 13.251728 2
 4.231218 7.410373 11.641651 2
 0.299041 8.656504 8.955557 2
 4.380692 6.783002 11.163749 2
 4.327588 6.682076 11.009719 2
 4.485376 6.682701 11.168130 2
 1.334587 7.310613 8.645259 2
 3.555865 8.817285 12.373198 2
 2.503778 8.272970 10.776832 2
 3.713003 8.075606 11.788687 2
 4.282556 6.957081 11.239697 2
 4.143545 6.940578 11.084188 2
 4.203537 6.832942 11.036548 2
 3.734553 8.954844 12.689435 2
 1.058497 9.815688 10.874196 2
 4.446509 7.322335 11.768905 2
 4.440694 7.457618 11.898371 2
 1.786778 7.275660 9.062510 2
 3.394715 8.972930 12.367696 2
 4.698592 8.771091 13.469707 2
 2.106870 8.283138 10.390082 2
 0.920541 7.459746 8.380325 2
 2.412495 9.230323 11.642863 2
 2.304126 9.214216 11.518377 2
 0.930620 9.294585 10.225236 2
 0.973801 9.436555 10.410379 2
 1.054995 9.315080 10.370110 2
 3.096404 9.548437 12.644863 2
 3.224978 9.529265 12.754271 2
 5.339095 9.054036 14.393135 2
 1.396366 7.460019 8.856437 2
 1.976478 7.746914 9.723466 2
 1.205404 8.976017 10.181463 2
 4.213342 9.427270 13.640630 2
 4.347909 7.403681 11.751654 2
 0.633174 9.197259 9.830458 2
 0.592068 9.076138 9.668236 2
 5.115304 7.631296 12.746638 2
 5.154410 7.012564 12.167007 2
 3.919992 8.025494 11.945556 2
 1.021153 7.292825 8.314014 2
 2.228667 8.455847 10.684584 2
 4.127783 8.810086 12.937902 2
 4.209990 8.931535 13.141557 2
 0.564581 9.714310 10.278899 2
 4.148323 8.448848 12.597218 2
 2.911109 7.846158 10.757354 2
 4.305555 10.000000 14.305555 2
 4.186213 9.892676 14.078898 2
 0.683349 7.644981 8.328362 2
 1.288095 7.776429 9.064574 2
 3.888889 10.000000 13.888889 2
 3.608349 9.325408 12.933782 2
 0.213930 8.846450 9.060382 2
 3.505209 8.273164 11.778439 2
 3.356488 8.323774 11.680332 2
 3.612837 9.785014 13.397857 2
 2.686038 7.749208 10.435331 2
 1.429399 8.087277 9.516732 2
 2.037016 9.517852 11.554894 2
 3.578867 7.278636 10.857593 2
 0.953595 8.408203 9.361837 2
 5.124939 8.088936 13.213918 2
 3.651424 9.198225 12.849680 2
 5.000000 10.000000 15.000000 2
 4.861111 10.000000 14.861111 2
 4.913227 9.878787 14.792020 2
 4.030770 8.744462 12.775275 2
 4.722222 10.000000 14.722221 2
 4.583333 10.000000 14.583333 2
 4.672441 9.880175 14.552623 2
 4.068501 9.585863 13.654375 2
 0.000000 7.916667 7.916667 2
 1.713748 9.647942 11.361708 2
 1.746946 9.550308 11.297277 2