TITLE      =  "2D FE Unstructured grid data" 
VARIABLES = "X", "Y", "U", "Dom" 
ZONE T="P1", F=FEPOINT, N= 494 E= 900  ET=TRIANGLE 
 0.804761 8.931736 9.736526 11
 0.883450 9.033758 9.917246 11
 0.731714 9.012262 9.744013 11
 2.215323 8.693197 10.908585 11
 2.352635 8.589117 10.941818 11
 2.338058 8.714190 11.052317 11
 3.044516 8.797724 11.842294 11
 2.927110 8.801484 11.728660 11
 2.978158 8.659540 11.637761 11
 0.813117 9.117463 9.930611 11
 3.125738 8.723030 11.848829 11
 2.255517 8.547160 10.802742 11
 2.511587 9.677944 12.189550 11
 2.365838 9.722083 12.087940 11
 2.355013 9.581230 11.936273 11
 0.586217 8.671837 9.258080 11
 0.717139 8.653090 9.370259 11
 0.688054 8.781419 9.469507 11
 2.389450 8.917956 11.307462 11
 2.507951 8.842249 11.350255 11
 2.535382 9.000408 11.535849 11
 0.600051 9.442334 10.042407 11
 0.625002 9.593052 10.218061 11
 0.495180 9.502041 9.997226 11
 2.232544 9.342650 11.575227 11
 2.231482 9.477139 11.708647 11
 2.118436 9.423791 11.542250 11
 2.107061 8.657786 10.764907 11
 2.156330 8.559928 10.716327 11
 0.441684 9.357429 9.799124 11
 0.279594 9.434204 9.713798 11
 0.296961 9.314909 9.611877 11
 2.988788 8.221578 11.210447 11
 2.848468 8.223381 11.071931 11
 2.938308 8.067600 11.005987 11
 3.081775 8.353309 11.435155 11
 2.937531 8.385432 11.323037 11
 2.634778 9.100739 11.735560 11
 2.751874 9.095387 11.847313 11
 2.661494 9.223904 11.885440 11
 2.809457 9.542949 12.352427 11
 2.863925 9.418609 12.282561 11
 2.953662 9.542715 12.496399 11
 2.807078 9.202169 12.009290 11
 0.376853 9.485054 9.861918 11
 0.858725 8.722531 9.581297 11
 1.021079 8.803075 9.824193 11
 0.926489 8.895859 9.822386 11
 0.722314 9.520363 10.242693 11
 2.456092 9.784729 12.240835 11
 1.666667 10.000000 11.666667 11
 1.527778 10.000000 11.527778 11
 1.576167 9.835144 11.411314 11
 0.000000 8.472222 8.472222 11
 0.000000 8.333333 8.333333 11
 0.166292 8.423943 8.590248 11
 0.206973 7.973966 8.180951 11
 0.365202 7.918355 8.283569 11
 0.290860 8.070413 8.361281 11
 2.601451 8.230957 10.832480 11
 2.705326 8.289047 10.994449 11
 2.563487 8.380516 10.944075 11
 2.826501 8.085840 10.912425 11
 2.580719 9.428445 12.009191 11
 2.584457 9.302958 11.887448 11
 2.726588 9.342508 12.069129 11
 1.805556 10.000000 11.805556 11
 1.737316 9.870559 11.607882 11
 1.903461 9.864985 11.768456 11
 0.000000 8.194445 8.194445 11
 0.133506 8.090914 8.224427 11
 0.127202 8.260216 8.387423 11
 1.508334 8.189949 9.698347 11
 1.644398 8.157336 9.801800 11
 1.585124 8.273692 9.858876 11
 1.707647 8.287313 9.995021 11
 1.970951 8.965046 10.936038 11
 1.824499 9.015575 10.840117 11
 1.870443 8.844454 10.714948 11
 1.761035 8.899155 10.660237 11
 1.085593 8.281207 9.366850 11
 1.211066 8.256941 9.468055 11
 1.196026 8.392241 9.588310 11
 0.577212 8.273679 8.850920 11
 0.521991 8.149955 8.671970 11
 0.693256 8.164474 8.857761 11
 2.339659 9.421269 11.760962 11
 2.610155 8.909194 11.519410 11
 2.684485 8.547401 11.231960 11
 2.845678 8.557736 11.403485 11
 2.742036 8.654783 11.396883 11
 1.388889 10.000000 11.388889 11
 1.286949 9.850028 11.136981 11
 1.458333 9.900642 11.358979 11
 0.000000 8.611111 8.611111 11
 0.099357 8.541667 8.641024 11
 0.149972 8.713051 8.863029 11
 2.753611 9.666281 12.419910 11
 2.642692 9.569966 12.212684 11
 2.685320 8.413293 11.098690 11
 0.000000 9.166667 9.166667 11
 0.123921 9.056075 9.179999 11
 0.118748 9.221499 9.340258 11
 0.833333 10.000000 10.833333 11
 0.771428 9.881005 10.652438 11
 0.952749 9.878537 10.831288 11
 3.426557 8.510435 11.937051 11
 3.487289 8.414026 11.901376 11
 3.542542 8.558068 12.100662 11
 3.612251 8.459483 12.071797 11
 0.511959 9.611855 10.123820 11
 2.796300 8.460410 11.256786 11
 0.803698 9.649410 10.453117 11
 0.678018 9.708518 10.386543 11
 0.624954 8.078673 8.703650 11
 0.210358 8.569089 8.779450 11
 0.309136 8.508445 8.817597 11
 2.523983 9.183787 11.707821 11
 1.616130 9.365771 10.981928 11
 1.769831 9.294094 11.063951 11
 1.730980 9.435247 11.166248 11
 0.261602 9.600441 9.862048 11
 0.339019 8.387820 8.726859 11
 1.189201 8.795759 9.985001 11
 1.113182 8.680849 9.794081 11
 0.758679 8.431259 9.189975 11
 0.733248 8.305851 9.039137 11
 0.866699 8.310026 9.176772 11
 0.267082 8.277399 8.544502 11
 0.413076 8.244780 8.657874 11
 1.696259 8.602985 10.299303 11
 1.803862 8.695800 10.499717 11
 1.657487 8.728475 10.386009 11
 2.638889 10.000000 12.638889 11
 2.500000 10.000000 12.500000 11
 2.564223 9.843437 12.407671 11
 1.494142 8.765318 10.259509 11
 1.645896 8.843415 10.489363 11
 1.564363 8.918695 10.483105 11
 1.317680 8.269543 9.587276 11
 1.451239 8.326179 9.777478 11
 1.309117 8.378160 9.687329 11
 3.600476 8.706468 12.306985 11
 3.441815 8.638124 12.079999 11
 1.066928 8.429412 9.496387 11
 2.449164 9.443862 11.893057 11
 3.484770 8.751163 12.235984 11
 0.191461 9.510171 9.701634 11
 1.398905 8.200853 9.599818 11
 1.103121 8.910573 10.013732 11
 3.326754 8.652893 11.979706 11
 3.258701 8.765776 12.024526 11
 3.199464 8.588102 11.787629 11
 1.767289 8.201658 9.969013 11
 3.039750 9.448254 12.488030 11
 2.654395 8.768534 11.422995 11
 2.535372 8.717549 11.252987 11
 2.466010 8.508545 10.974625 11
 2.438167 8.359035 10.797269 11
 1.592797 9.097786 10.690618 11
 1.669018 9.221201 10.890254 11
 1.548165 9.241406 10.789612 11
 0.616477 8.393044 9.009546 11
 0.473950 8.361743 8.835712 11
 0.795406 8.565123 9.360566 11
 0.908448 8.586155 9.494647 11
 0.411077 9.591169 10.002252 11
 3.031659 8.517939 11.549671 11
 1.250000 10.000000 11.250000 11
 0.000000 8.750000 8.750000 11
 0.546415 8.787341 9.333785 11
 0.990099 8.657994 9.648131 11
 2.703299 9.902945 12.606252 11
 0.142591 9.655199 9.797792 11
 0.283525 9.728330 10.011853 11
 3.131418 8.196046 11.327537 11
 1.464331 9.149743 10.614113 11
 2.318282 8.054093 10.372453 11
 2.336846 7.907362 10.244292 11
 2.449202 7.997257 10.446540 11
 1.402143 8.440618 9.842817 11
 0.196901 9.803100 9.999997 11
 1.965205 8.701877 10.667136 11
 1.431722 9.788975 11.220708 11
 1.492050 9.689928 11.181986 11
 1.728744 8.439555 10.168356 11
 1.596820 8.391994 9.988873 11
 2.307197 8.331261 10.638523 11
 2.310130 8.199123 10.509325 11
 2.416319 8.226562 10.642962 11
 0.864869 8.475965 9.340869 11
 1.561748 8.649764 10.211564 11
 2.198971 7.963866 10.162916 11
 1.608491 9.667698 11.276196 11
 2.881615 9.660957 12.542593 11
 2.809819 8.748355 11.558238 11
 2.774133 8.871576 11.645768 11
 2.906578 8.940297 11.846921 11
 0.526764 8.467170 8.993957 11
 0.293526 8.784400 9.077937 11
 0.441780 8.860373 9.302165 11
 0.333250 8.930343 9.263603 11
 1.287874 8.131318 9.419237 11
 1.181810 8.551363 9.733225 11
 1.220491 8.689522 9.910063 11
 2.207673 8.252357 10.460105 11
 1.596348 8.519858 10.116265 11
 2.507870 9.539163 12.047054 11
 2.705582 9.795480 12.501073 11
 2.643671 9.691219 12.334908 11
 1.544884 8.074590 9.619540 11
 2.218618 9.697988 11.916622 11
 2.203887 9.583989 11.787896 11
 1.334896 9.444846 10.779768 11
 1.348866 9.335640 10.684535 11
 1.469599 9.466022 10.935650 11
 2.222222 10.000000 12.222222 11
 2.083333 10.000000 12.083333 11
 2.155257 9.869110 12.024371 11
 0.506783 7.991428 8.498234 11
 1.497565 9.348309 10.845899 11
 1.071089 8.570249 9.641386 11
 2.388564 9.077755 11.466376 11
 1.684391 8.982583 10.667019 11
 2.793774 7.994339 10.788190 11
 2.686939 7.956045 10.643067 11
 2.792672 7.848142 10.640903 11
 3.099504 7.861408 10.961006 11
 3.246407 7.816896 11.063386 11
 3.162837 7.963872 11.126791 11
 1.361718 8.903855 10.265613 11
 1.337824 8.769677 10.107552 11
 1.458961 8.869428 10.328432 11
 2.740686 8.172968 10.913732 11
 0.414963 8.071552 8.486541 11
 2.023131 9.905187 11.928325 11
 0.356034 9.675016 10.031054 11
 1.802797 9.755301 11.558113 11
 0.225961 8.181989 8.407967 11
 0.211318 9.131266 9.342593 11
 0.294735 9.054495 9.349236 11
 0.369858 9.189230 9.559096 11
 2.416075 8.773869 11.190005 11
 2.439552 8.650907 11.090528 11
 2.344554 8.463660 10.808282 11
 2.138381 9.518966 11.657371 11
 2.699648 8.977465 11.677165 11
 0.529079 9.213453 9.742555 11
 0.322388 8.169227 8.491631 11
 0.983326 8.514839 9.498212 11
 2.929271 8.493922 11.423263 11
 3.282170 7.982706 11.264960 11
 0.864530 9.786017 10.650551 11
 0.435687 8.704444 9.140142 11
 2.626130 8.127058 10.753271 11
 0.235199 7.868153 8.103357 11
 2.983458 9.338620 12.322105 11
 0.981902 8.191603 9.173549 11
 1.144988 8.142914 9.287951 11
 2.891120 7.950875 10.842084 11
 3.018186 7.962210 10.980483 11
 3.026406 8.119363 11.145842 11
 0.694444 10.000000 10.694444 11
 0.555556 10.000000 10.555556 11
 0.632514 9.850994 10.483516 11
 0.000000 9.444445 9.444445 11
 0.000000 9.305555 9.305555 11
 0.147830 9.363488 9.511322 11
 0.714316 9.402905 10.117241 11
 2.177634 8.374730 10.552432 11
 0.229289 9.240767 9.470061 11
 1.247027 9.296149 10.543211 11
 1.236969 9.439577 10.676571 11
 1.445282 9.003757 10.449081 11
 0.191008 8.946526 9.137546 11
 2.897183 9.084881 11.982106 11
 3.007979 9.034867 12.042892 11
 3.109078 8.066141 11.175303 11
 1.838712 9.384990 11.223724 11
 1.918479 9.271042 11.189553 11
 1.973748 9.426676 11.400449 11
 2.070018 9.313602 11.383657 11
 0.712002 9.129732 9.841756 11
 0.832334 8.181274 9.013652 11
 1.894796 8.283788 10.178656 11
 1.796368 8.333261 10.129697 11
 2.860039 9.305372 12.165441 11
 2.709552 9.461353 12.170930 11
 0.636902 8.530614 9.167547 11
 0.817945 9.228610 10.046593 11
 0.705682 9.281222 9.986927 11
 1.687356 9.755663 11.443031 11
 2.126284 8.081773 10.208128 11
 2.057845 8.012397 10.070321 11
 0.487094 9.909638 10.396742 11
 0.086995 9.513889 9.600885 11
 1.818970 9.167747 10.986753 11
 1.952648 9.115278 11.067966 11
 1.212820 9.693766 10.906600 11
 1.355126 9.675912 11.031057 11
 0.830477 9.369934 10.200432 11
 0.838538 9.499920 10.338479 11
 0.493726 8.971506 9.465253 11
 0.404042 9.048648 9.452710 11
 3.019313 8.927312 11.946681 11
 3.172261 8.877253 12.049564 11
 3.142503 9.012094 12.154644 11
 2.794759 8.349617 11.144450 11
 0.000000 9.722222 9.722222 11
 0.000000 9.583333 9.583333 11
 0.416667 10.000000 10.416667 11
 0.277778 10.000000 10.277778 11
 0.347068 9.865978 10.213046 11
 3.209192 8.323812 11.533078 11
 3.142920 8.472559 11.615548 11
 3.251038 8.433955 11.685057 11
 3.384366 7.927693 11.312140 11
 3.455959 8.054653 11.510694 11
 3.338727 8.074183 11.412992 11
 0.804992 8.836111 9.641142 11
 0.390550 8.588207 8.978779 11
 0.499662 8.572626 9.072310 11
 2.213852 8.122400 10.336330 11
 1.154797 9.368364 10.523190 11
 2.811066 8.983169 11.794281 11
 1.944444 10.000000 11.944444 11
 0.000000 8.055555 8.055555 11
 2.084858 8.479953 10.564883 11
 2.011927 8.365358 10.377354 11
 0.598355 8.906145 9.504535 11
 3.041671 9.147126 12.188836 11
 3.207491 9.144413 12.351941 11
 3.081324 9.268017 12.349372 11
 3.692692 8.572439 12.265185 11
 2.029161 9.791840 11.821015 11
 1.497397 8.567036 10.064487 11
 2.864630 8.666462 11.531154 11
 3.269875 8.919956 12.189877 11
 0.984513 8.316355 9.300914 11
 1.030836 9.115532 10.146401 11
 1.126290 9.230981 10.357306 11
 1.010762 9.226134 10.236932 11
 0.000000 7.777778 7.777778 11
 0.155138 7.724136 7.879278 11
 0.115023 7.874085 7.989114 11
 2.578987 8.492351 11.071414 11
 0.972222 10.000000 10.972222 11
 0.000000 9.027778 9.027778 11
 2.055979 8.579137 10.635195 11
 2.440898 7.840679 10.281659 11
 2.559854 7.907807 10.467736 11
 2.580730 8.027303 10.608118 11
 2.019666 8.846539 10.866253 11
 2.508919 8.137167 10.646162 11
 0.492241 9.801861 10.294105 11
 2.074688 8.746455 10.821205 11
 2.018899 9.223706 11.242649 11
 1.004662 8.995338 10.000045 11
 1.878052 8.432953 10.311063 11
 1.824728 8.560706 10.385489 11
 1.747745 8.802259 10.550056 11
 1.860916 8.142054 10.003041 11
 1.155032 9.125547 10.280618 11
 2.916667 10.000000 12.916667 11
 2.777778 10.000000 12.777778 11
 2.830021 9.875804 12.705832 11
 1.623189 9.519094 11.142303 11
 0.964521 9.713545 10.678076 11
 0.954280 9.592237 10.546534 11
 3.715698 8.424626 12.140383 11
 1.942917 9.574646 11.517585 11
 2.075941 9.644622 11.720576 11
 1.928411 9.705174 11.633598 11
 1.263118 8.884799 10.147958 11
 3.345575 8.847124 12.192752 11
 2.197724 9.016069 11.213843 11
 2.107676 8.934102 11.041828 11
 2.247982 8.912095 11.160128 11
 2.158822 8.828609 10.987486 11
 3.312670 8.536125 11.848862 11
 0.299041 8.656504 8.955555 11
 2.503778 8.272970 10.776827 11
 1.058497 9.815688 10.874193 11
 2.106870 8.283138 10.390083 11
 2.412495 9.230323 11.642856 11
 2.304126 9.214216 11.518390 11
 0.930620 9.294585 10.225231 11
 0.973801 9.436555 10.410383 11
 1.054995 9.315080 10.370111 11
 1.205404 8.976017 10.181463 11
 0.633174 9.197259 9.830455 11
 0.592068 9.076138 9.668231 11
 2.228667 8.455847 10.684577 11
 0.564581 9.714310 10.278903 11
 2.911109 7.846158 10.757354 11
 0.213930 8.846450 9.060388 11
 3.505209 8.273164 11.778442 11
 3.356488 8.323774 11.680332 11
 2.037016 9.517852 11.554886 11
 0.953595 8.408203 9.361847 11
 0.000000 7.916667 7.916667 11
 1.713748 9.647942 11.361710 11
 1.746946 9.550308 11.297282 11
 0.000000 10.000000 10.000000 11
 0.000000 9.861111 9.861111 11
 0.107824 9.892176 9.999996 11
 0.138889 10.000000 10.138889 11
 2.940107 9.226430 12.166571 11
 1.151346 9.895024 11.046376 11
 0.106092 8.849491 8.955585 11
 2.171618 9.210989 11.382643 11
 2.361111 10.000000 12.361111 11
 2.288904 9.895423 12.184335 11
 2.436661 9.892396 12.329057 11
 3.087309 8.611466 11.698832 11
 3.361814 8.439623 11.801506 11
 1.358403 9.543875 10.902294 11
 1.443864 9.592309 11.036185 11
 0.911069 9.174496 10.085596 11
 1.887306 8.627846 10.515216 11
 2.162253 9.112062 11.274361 11
 2.058272 9.036160 11.094478 11
 1.062614 9.535784 10.598417 11
 1.717935 9.096978 10.814952 11
 2.015341 8.240054 10.255473 11
 1.311718 8.993432 10.305192 11
 2.263370 9.107443 11.370862 11
 1.831896 9.622097 11.454002 11
 1.853158 9.498068 11.351239 11
 0.759233 9.770711 10.529944 11
 2.010645 8.122132 10.132848 11
 1.943088 8.197810 10.140972 11
 2.301919 9.006825 11.308801 11
 1.258936 9.570167 10.829120 11
 2.288204 8.801998 11.090263 11
 1.955428 8.552999 10.508489 11
 0.480838 9.114609 9.595462 11
 2.819856 9.758503 12.578370 11
 2.930575 9.774561 12.705149 11
 0.389819 9.757821 10.147642 11
 3.279959 8.202665 11.482697 11
 3.221675 8.093870 11.315634 11
 3.555865 8.817285 12.373195 11
 1.153550 9.786070 10.939626 11
 1.346873 9.100210 10.447118 11
 2.366446 9.811171 12.177630 11
 0.091278 9.780123 9.871406 11
 0.213692 9.912251 10.125945 11
 1.301408 8.605935 9.907394 11
 1.426698 8.649664 10.076408 11
 0.599666 9.312307 9.911988 11
 1.076383 9.418751 10.495166 11
 2.126009 9.752971 11.878996 11
 1.974128 8.457271 10.431463 11
 2.698863 8.066895 10.765838 11
 1.079324 9.680214 10.759555 11
 0.000000 8.888889 8.888889 11
 1.111111 10.000000 11.111111 11
 2.460074 9.329252 11.789360 11
 2.400570 8.122841 10.523489 11
 3.408233 8.183514 11.591825 11
 2.064703 9.130988 11.195728 11
 1.534460 9.581480 11.115952 11
 1.345869 9.212654 10.558549 11
 1.642432 7.990613 9.633102 11
 1.750976 8.080727 9.831765 11
 1.444916 9.260551 10.705495 11
 0.719683 8.890155 9.609868 11
 3.618646 8.343740 11.962458 11
 2.347884 9.312045 11.659969 11
 1.142776 9.493199 10.636004 11
 1.149933 9.600081 10.750035 11
 1.429399 8.087277 9.516730 11
 2.633778 8.656528 11.290375 11
 1.404965 8.536551 9.941571 11
 1.305023 8.488237 9.793311 11
 2.269420 9.791131 12.060566 11
 1.499858 7.947772 9.447689 11
 3.451617 8.848603 12.300262 11
 3.394715 8.972930 12.367681 11
 3.096404 9.548437 12.644864 11
 3.023593 9.671023 12.694636 11
 0.418376 8.475342 8.893741 11
 0.092829 7.983811 8.076643 11
 1.117910 9.027727 10.145674 11
 0.455960 9.693076 10.149037 11
 1.497119 8.467815 9.964984 11
 1.229989 9.066641 10.296662 11
 2.552602 8.594373 11.147041 11
 0.084204 8.953752 9.037958 11
 1.047968 9.918360 10.966333 11
 1.242998 9.176913 10.419944 11
 2.113444 8.183642 10.297161 11
 3.375226 8.749762 12.125034 11
 1 2 3 
 4 5 6 
 7 8 9 
 2 10 3 
 11 7 9 
 12 5 4 
 13 14 15 
 16 17 18 
 19 20 21 
 22 23 24 
 25 26 27 
 28 29 4 
 30 31 32 
 33 34 35 
 33 36 37 
 38 39 40 
 41 42 43 
 39 44 40 
 45 31 30 
 46 47 48 
 22 49 23 
 13 50 14 
 51 52 53 
 54 55 56 
 57 58 59 
 60 61 62 
 35 34 63 
 64 65 66 
 67 68 69 
 70 71 72 
 73 74 75 
 76 75 74 
 77 78 79 
 80 79 78 
 81 82 83 
 84 85 86 
 87 26 25 
 88 21 20 
 89 90 91 
 92 93 94 
 95 96 97 
 41 98 99 
 62 61 100 
 101 102 103 
 104 105 106 
 107 108 109 
 109 108 110 
 111 24 23 
 89 112 90 
 29 12 4 
 49 113 23 
 23 113 114 
 115 86 85 
 116 56 117 
 118 38 40 
 119 120 121 
 45 122 31 
 123 117 56 
 124 47 125 
 126 127 128 
 123 129 130 
 131 132 133 
 134 135 136 
 137 138 139 
 140 141 142 
 137 133 138 
 44 66 40 
 109 143 144 
 81 83 145 
 66 65 40 
 87 146 15 
 118 21 38 
 144 143 147 
 148 31 122 
 140 149 141 
 124 150 47 
 151 152 153 
 11 153 152 
 76 74 154 
 43 42 155 
 88 20 156 
 157 156 20 
 158 159 62 
 160 161 162 
 84 163 164 
 46 165 166 
 45 167 122 
 168 37 36 
 92 169 93 
 170 95 97 
 16 18 171 
 119 161 120 
 46 172 47 
 134 136 173 
 174 122 175 
 33 176 36 
 160 162 177 
 178 179 180 
 181 142 141 
 46 17 165 
 182 174 175 
 183 79 132 
 184 185 53 
 76 186 187 
 188 189 190 
 126 128 191 
 131 133 192 
 178 193 179 
 194 53 185 
 41 43 195 
 196 8 197 
 8 198 197 
 199 164 163 
 200 201 202 
 203 140 82 
 125 204 205 
 188 206 189 
 131 192 207 
 13 15 208 
 209 136 210 
 13 210 136 
 73 211 74 
 212 213 15 
 46 18 17 
 214 215 216 
 217 218 219 
 115 85 220 
 216 215 221 
 212 15 14 
 222 204 125 
 19 21 223 
 160 139 224 
 225 226 227 
 228 229 230 
 231 232 233 
 60 234 61 
 235 59 58 
 33 37 34 
 218 236 219 
 237 122 167 
 238 69 68 
 239 72 71 
 240 241 242 
 157 243 244 
 158 245 159 
 246 27 26 
 38 21 247 
 88 247 21 
 248 30 242 
 32 242 30 
 130 129 249 
 222 172 250 
 90 251 9 
 168 9 251 
 116 97 96 
 184 94 93 
 76 187 75 
 252 230 229 
 240 103 102 
 253 106 105 
 184 53 94 
 116 96 56 
 200 254 201 
 166 250 172 
 255 234 60 
 57 256 58 
 257 155 42 
 81 258 259 
 225 227 260 
 35 261 262 
 99 98 210 
 263 264 265 
 266 267 268 
 54 56 96 
 52 94 53 
 22 269 49 
 51 53 68 
 55 72 56 
 83 82 142 
 137 233 232 
 188 270 206 
 15 146 208 
 240 242 271 
 272 215 273 
 137 139 233 
 160 274 139 
 139 138 224 
 118 223 21 
 275 241 102 
 276 198 277 
 262 261 278 
 279 280 281 
 282 281 280 
 209 173 136 
 283 3 10 
 284 258 128 
 285 286 154 
 87 15 26 
 44 287 66 
 64 66 288 
 235 220 85 
 16 289 17 
 283 290 291 
 188 190 159 
 123 56 129 
 194 292 53 
 293 294 193 
 264 295 265 
 266 268 296 
 297 298 280 
 299 300 93 
 184 93 300 
 80 224 138 
 13 208 99 
 64 99 208 
 301 302 269 
 49 269 302 
 84 130 85 
 84 164 130 
 303 304 202 
 201 303 202 
 305 306 307 
 308 37 112 
 235 85 130 
 157 20 243 
 309 310 174 
 311 312 313 
 137 192 133 
 123 130 164 
 203 82 259 
 36 314 315 
 315 314 316 
 252 229 317 
 41 288 42 
 15 213 26 
 66 42 288 
 318 319 317 
 203 149 140 
 46 48 320 
 321 322 254 
 16 254 322 
 73 141 149 
 293 193 323 
 272 273 324 
 178 323 193 
 46 166 172 
 325 198 276 
 235 130 249 
 140 142 82 
 326 67 69 
 70 327 71 
 328 329 270 
 330 201 171 
 331 332 333 
 143 109 334 
 110 334 109 
 335 219 236 
 11 152 306 
 336 207 192 
 90 9 337 
 306 338 307 
 240 102 241 
 308 34 37 
 37 251 112 
 258 339 128 
 330 303 201 
 168 36 315 
 278 261 230 
 126 165 289 
 340 341 342 
 17 289 165 
 88 156 197 
 343 344 345 
 84 86 127 
 222 125 172 
 158 62 346 
 330 171 18 
 347 104 106 
 101 348 102 
 183 349 28 
 350 351 180 
 352 180 351 
 183 353 79 
 352 354 180 
 148 296 268 
 355 265 295 
 183 28 356 
 280 298 357 
 358 48 150 
 47 150 48 
 76 154 286 
 331 307 332 
 359 360 186 
 131 186 360 
 196 337 8 
 9 8 337 
 132 79 361 
 362 285 154 
 363 341 340 
 364 365 366 
 119 367 216 
 253 113 368 
 369 368 113 
 306 152 338 
 110 370 334 
 359 285 329 
 371 372 373 
 335 373 372 
 231 374 232 
 375 338 152 
 84 127 163 
 376 377 378 
 379 378 377 
 124 374 150 
 304 242 241 
 107 144 380 
 13 136 50 
 228 230 261 
 116 381 97 
 200 97 381 
 60 62 382 
 383 106 368 
 214 273 215 
 57 59 71 
 239 71 59 
 238 373 69 
 335 69 373 
 305 7 306 
 11 306 7 
 88 197 247 
 270 329 384 
 118 385 223 
 386 223 385 
 301 387 388 
 389 388 387 
 301 388 302 
 369 302 388 
 239 249 129 
 390 150 374 
 283 391 392 
 283 392 3 
 33 35 262 
 279 121 120 
 283 291 391 
 263 265 105 
 267 103 268 
 301 291 290 
 328 393 29 
 355 394 265 
 114 265 394 
 248 392 391 
 395 260 227 
 330 3 392 
 310 296 174 
 311 313 295 
 328 270 393 
 200 202 396 
 397 108 398 
 284 128 127 
 131 360 132 
 281 27 399 
 400 191 128 
 253 368 106 
 301 269 291 
 126 163 127 
 148 174 296 
 355 295 313 
 401 343 345 
 194 367 402 
 403 402 367 
 404 405 406 
 404 406 407 
 148 268 31 
 32 31 268 
 41 99 288 
 282 27 281 
 331 408 276 
 44 276 408 
 32 271 242 
 169 409 93 
 170 97 410 
 279 120 280 
 297 280 120 
 282 411 25 
 13 99 210 
 151 380 144 
 412 413 414 
 168 415 9 
 11 9 415 
 36 176 314 
 398 108 416 
 214 216 417 
 418 417 216 
 64 288 99 
 77 298 78 
 297 78 298 
 283 10 290 
 308 61 34 
 234 34 61 
 358 340 2 
 419 2 340 
 183 132 420 
 83 204 145 
 222 145 204 
 80 361 79 
 376 421 422 
 376 422 377 
 369 113 302 
 49 302 113 
 284 127 86 
 135 414 136 
 369 388 423 
 297 424 78 
 305 277 198 
 257 408 333 
 331 333 408 
 425 329 285 
 231 274 426 
 45 30 24 
 77 79 353 
 386 427 223 
 188 159 245 
 371 428 429 
 124 232 374 
 114 430 265 
 32 268 271 
 362 431 432 
 252 317 319 
 19 223 433 
 6 244 243 
 67 51 68 
 55 70 72 
 344 256 345 
 151 153 380 
 316 380 153 
 299 434 300 
 19 378 435 
 183 436 349 
 248 437 392 
 16 322 289 
 438 195 439 
 98 195 438 
 316 153 315 
 330 392 303 
 355 313 440 
 196 156 91 
 209 210 98 
 275 202 241 
 160 424 161 
 153 415 315 
 217 219 413 
 19 435 243 
 386 25 411 
 441 176 442 
 278 442 176 
 143 443 147 
 297 120 161 
 299 93 444 
 200 396 97 
 350 180 179 
 119 162 161 
 168 315 415 
 445 426 274 
 446 414 413 
 182 447 174 
 312 448 313 
 182 313 448 
 309 174 447 
 80 78 224 
 41 195 98 
 316 314 398 
 441 398 314 
 358 2 48 
 1 48 2 
 11 415 153 
 104 263 105 
 267 101 103 
 449 205 204 
 133 132 361 
 137 450 192 
 248 451 30 
 22 30 451 
 22 451 269 
 291 269 451 
 441 314 176 
 388 452 423 
 22 24 30 
 297 161 424 
 237 175 122 
 282 357 411 
 235 58 220 
 231 233 274 
 81 145 339 
 389 452 388 
 445 274 177 
 200 381 254 
 321 254 381 
 446 14 50 
 335 453 219 
 246 372 399 
 359 329 454 
 118 40 65 
 234 255 455 
 403 429 428 
 331 277 307 
 383 368 456 
 457 170 410 
 169 458 409 
 137 232 450 
 182 175 313 
 148 122 174 
 118 65 459 
 64 146 459 
 418 185 300 
 184 300 185 
 180 354 460 
 187 186 207 
 131 207 186 
 116 117 381 
 321 381 117 
 234 63 34 
 359 436 360 
 201 254 171 
 400 339 145 
 371 399 372 
 160 177 274 
 16 171 254 
 397 398 461 
 441 461 398 
 183 356 353 
 371 429 281 
 279 281 429 
 90 337 91 
 107 109 144 
 352 351 226 
 386 411 427 
 462 411 357 
 336 192 450 
 246 213 372 
 238 292 402 
 418 216 463 
 114 113 430 
 238 402 428 
 126 289 163 
 253 430 113 
 434 417 300 
 168 251 37 
 178 180 460 
 28 4 356 
 379 356 4 
 445 177 464 
 278 176 262 
 33 262 176 
 325 276 39 
 44 39 276 
 78 424 224 
 74 465 466 
 403 121 429 
 467 177 162 
 279 429 121 
 139 274 233 
 196 197 156 
 46 320 18 
 304 437 242 
 248 242 437 
 389 342 341 
 330 18 468 
 64 208 146 
 35 63 260 
 467 221 215 
 47 172 125 
 89 100 112 
 110 469 370 
 212 372 213 
 77 353 377 
 379 377 353 
 246 399 27 
 462 357 298 
 87 25 470 
 386 470 25 
 467 464 177 
 403 367 121 
 119 216 221 
 449 450 232 
 119 121 367 
 81 259 82 
 411 421 427 
 81 339 258 
 64 459 65 
 471 423 452 
 87 459 146 
 107 416 108 
 225 260 63 
 87 470 459 
 369 456 368 
 265 430 105 
 268 103 271 
 118 459 385 
 299 444 456 
 383 456 444 
 252 442 230 
 278 230 442 
 212 453 372 
 335 372 453 
 56 72 129 
 53 292 68 
 239 129 72 
 238 68 292 
 111 23 394 
 365 173 366 
 209 366 173 
 299 456 472 
 299 472 434 
 325 197 198 
 73 473 211 
 216 367 463 
 371 373 428 
 412 217 413 
 157 474 156 
 257 287 408 
 135 412 414 
 305 8 7 
 362 432 285 
 425 285 432 
 124 205 232 
 449 232 205 
 110 108 469 
 397 469 108 
 449 475 450 
 93 409 444 
 97 396 410 
 449 476 475 
 379 435 378 
 308 100 61 
 359 286 285 
 203 473 149 
 282 280 357 
 275 396 202 
 371 281 399 
 418 300 417 
 304 303 437 
 392 437 303 
 441 319 461 
 199 163 289 
 282 25 27 
 219 453 477 
 235 249 59 
 471 273 434 
 214 434 273 
 359 454 436 
 190 354 382 
 60 382 354 
 212 477 453 
 328 436 454 
 301 290 387 
 331 276 277 
 478 465 211 
 328 349 436 
 225 63 455 
 234 455 63 
 196 91 337 
 52 92 94 
 95 54 96 
 183 420 436 
 209 98 438 
 199 289 322 
 375 479 480 
 76 286 186 
 214 417 434 
 43 481 482 
 89 346 100 
 62 100 346 
 369 423 456 
 257 42 287 
 359 186 286 
 305 307 277 
 90 112 251 
 471 434 472 
 74 211 465 
 124 125 205 
 425 384 329 
 199 483 164 
 123 164 483 
 316 398 416 
 419 387 290 
 325 247 197 
 44 408 287 
 401 345 484 
 57 484 345 
 194 463 367 
 209 438 366 
 77 422 298 
 462 298 422 
 218 326 236 
 327 401 484 
 312 407 448 
 405 309 447 
 160 224 424 
 326 69 236 
 327 484 71 
 439 366 438 
 114 394 23 
 272 324 341 
 389 341 324 
 305 198 8 
 12 29 393 
 379 4 435 
 365 134 173 
 57 71 484 
 335 236 69 
 375 480 338 
 318 461 319 
 1 320 48 
 439 195 482 
 43 482 195 
 478 211 473 
 222 250 145 
 400 145 250 
 62 159 382 
 187 141 75 
 358 485 340 
 363 340 485 
 73 149 473 
 35 260 261 
 264 311 295 
 310 266 296 
 156 474 91 
 111 394 486 
 187 487 141 
 181 141 487 
 390 488 485 
 363 485 488 
 376 378 433 
 19 433 378 
 157 244 489 
 158 489 244 
 304 241 202 
 89 91 474 
 73 75 141 
 206 270 384 
 238 428 373 
 441 442 319 
 348 457 490 
 458 347 491 
 328 454 329 
 188 393 270 
 132 360 420 
 445 464 492 
 57 345 256 
 419 290 10 
 240 271 103 
 253 105 430 
 400 128 339 
 352 255 354 
 445 492 488 
 272 464 215 
 467 215 464 
 352 226 455 
 379 353 356 
 74 466 154 
 19 243 20 
 321 483 322 
 45 24 167 
 111 167 24 
 293 493 431 
 425 431 493 
 375 152 494 
 151 494 152 
 395 261 260 
 457 410 490 
 275 490 410 
 458 491 409 
 383 409 491 
 151 144 494 
 147 494 144 
 358 150 485 
 390 485 150 
 66 287 42 
 6 5 244 
 190 460 354 
 308 112 100 
 462 422 421 
 199 322 483 
 166 191 250 
 38 247 39 
 325 39 247 
 77 377 422 
 60 354 255 
 330 468 3 
 1 3 468 
 83 476 204 
 449 204 476 
 352 455 255 
 136 414 50 
 446 50 414 
 375 494 479 
 147 479 494 
 462 421 411 
 405 447 406 
 407 406 448 
 147 443 479 
 237 486 440 
 89 474 489 
 252 319 442 
 419 342 387 
 389 387 342 
 158 244 5 
 239 59 249 
 436 420 360 
 219 477 413 
 336 450 475 
 389 324 452 
 194 185 463 
 418 463 185 
 321 117 483 
 419 10 2 
 181 475 476 
 336 487 207 
 446 413 477 
 400 250 191 
 355 486 394 
 471 324 273 
 223 427 433 
 376 433 427 
 246 26 213 
 347 106 491 
 348 490 102 
 225 455 226 
 237 440 175 
 158 346 489 
 419 340 342 
 194 402 292 
 119 221 162 
 237 167 486 
 111 486 167 
 187 207 487 
 18 320 468 
 178 460 189 
 190 189 460 
 123 483 117 
 158 5 245 
 383 444 409 
 275 410 396 
 376 427 421 
 403 428 402 
 471 452 324 
 248 391 451 
 291 451 391 
 425 432 431 
 190 382 159 
 83 142 476 
 181 476 142 
 275 102 490 
 383 491 106 
 182 406 447 
 182 448 406 
 316 416 380 
 107 380 416 
 293 431 294 
 467 162 221 
 43 155 481 
 166 165 191 
 459 470 385 
 178 189 323 
 206 323 189 
 390 374 426 
 80 138 361 
 133 361 138 
 446 477 14 
 231 426 374 
 212 14 477 
 12 245 5 
 272 341 492 
 363 492 341 
 6 435 4 
 362 154 466 
 272 492 464 
 355 440 486 
 157 489 474 
 386 385 470 
 188 245 393 
 12 393 245 
 456 423 472 
 336 475 487 
 6 243 435 
 89 489 346 
 1 468 320 
 471 472 423 
 181 487 475 
 363 488 492 
 126 191 165 
 390 426 488 
 425 493 384 
 206 384 493 
 313 175 440 
 445 488 426 
 328 29 349 
 206 493 323 
 293 323 493 
 28 349 29 
