TITLE      =  "2D FE Unstructured grid data" 
VARIABLES = "X", "Y", "U", "Dom" 
ZONE T="P1", F=FEPOINT, N= 497 E= 902  ET=TRIANGLE 
 5.221864 8.314909 13.536806 12
 5.194563 8.453780 13.648358 12
 5.103426 8.308444 13.411903 12
 5.039473 8.409187 13.448690 12
 4.843771 7.742307 12.586124 12
 4.766234 7.666049 12.432339 12
 4.942622 7.631082 12.573751 12
 4.792192 8.827494 13.619705 12
 4.900336 8.739722 13.640082 12
 4.900708 8.889679 13.790398 12
 5.018963 8.822566 13.841543 12
 4.518532 9.039821 13.558374 12
 4.623083 9.182564 13.805661 12
 4.474886 9.182805 13.657706 12
 4.643481 9.022559 13.666061 12
 4.821928 7.549235 12.371212 12
 3.984750 9.683025 13.667782 12
 4.081141 9.703469 13.784625 12
 3.991364 9.808573 13.799945 12
 4.154042 9.791286 13.945333 12
 3.642383 7.890832 11.533290 12
 3.511250 7.910295 11.421622 12
 3.556786 7.772664 11.329540 12
 3.421979 7.817657 11.239725 12
 4.690049 8.661431 13.351514 12
 4.815514 8.530622 13.346166 12
 4.799302 8.686742 13.486073 12
 4.711200 8.307444 13.018688 12
 4.741633 8.163024 12.904713 12
 4.860852 8.234040 13.094936 12
 6.329707 9.377750 15.707459 12
 6.492596 9.347685 15.840288 12
 6.401016 9.473169 15.874189 12
 3.948256 8.299196 12.247516 12
 3.843820 8.384261 12.228143 12
 3.843518 8.238039 12.081618 12
 3.734205 8.298347 12.032613 12
 4.835890 8.349513 13.185440 12
 6.023907 9.579772 15.603681 12
 5.876548 9.535896 15.412439 12
 6.006768 9.473273 15.480038 12
 3.850071 9.739372 13.589450 12
 5.033668 8.974723 14.008401 12
 4.887443 9.018431 13.905888 12
 5.160952 8.874516 14.035482 12
 5.117629 9.121278 14.238916 12
 5.054770 9.226753 14.281531 12
 4.976250 9.108380 14.084643 12
 4.595613 8.187726 12.783392 12
 4.511151 8.049745 12.560952 12
 4.657690 8.056572 12.714316 12
 6.406180 9.252308 15.658492 12
 3.611111 10.000000 13.611111 12
 3.472222 10.000000 13.472222 12
 3.516792 9.854188 13.370986 12
 3.641623 9.892745 13.534377 12
 3.711240 7.702978 11.414290 12
 3.753700 7.593210 11.346994 12
 3.852340 7.744352 11.596770 12
 3.880420 7.593835 11.474327 12
 4.992723 9.561673 14.554401 12
 4.955625 9.444233 14.399870 12
 5.100862 9.495233 14.596108 12
 5.104562 9.353175 14.457741 12
 3.455959 8.054653 11.510694 12
 3.603015 8.014289 11.617384 12
 3.522590 8.166489 11.689153 12
 3.357792 9.078940 12.436768 12
 3.207491 9.144413 12.351941 12
 3.270567 9.026120 12.296727 12
 4.134202 8.347101 12.481360 12
 3.981994 8.390379 12.372429 12
 4.054682 8.266901 12.321642 12
 5.326624 8.394687 13.721330 12
 5.455002 8.323562 13.778584 12
 5.448535 8.493784 13.942334 12
 5.942748 9.666035 15.608780 12
 3.600476 8.706468 12.306985 12
 3.692692 8.572439 12.265185 12
 3.757893 8.727348 12.485290 12
 5.281036 8.087737 13.368808 12
 5.183760 7.973964 13.157763 12
 5.325183 7.953028 13.278237 12
 5.229473 7.854873 13.084380 12
 5.786549 8.751596 14.538149 12
 5.831116 8.859455 14.690574 12
 5.704263 8.908795 14.613066 12
 3.350409 9.182704 12.533142 12
 5.667077 8.750273 14.417354 12
 3.841172 8.600904 12.442125 12
 3.907595 8.740753 12.648393 12
 3.835572 8.882611 12.718213 12
 4.928938 8.408052 13.337024 12
 5.339095 9.054036 14.393144 12
 5.474401 8.974982 14.449386 12
 5.467297 9.110331 14.577639 12
 4.752560 9.091887 13.844461 12
 4.753585 9.217464 13.971062 12
 4.921981 8.624599 13.546609 12
 5.316194 8.940395 14.256594 12
 5.494482 9.751087 15.245569 12
 5.389594 9.632672 15.022271 12
 5.532137 9.655560 15.187693 12
 4.255176 8.445662 12.700892 12
 4.310953 8.315970 12.626969 12
 5.317335 8.524278 13.841639 12
 5.214862 8.622054 13.836935 12
 5.107150 8.727748 13.834908 12
 5.044873 8.595980 13.640880 12
 3.215754 9.288006 12.503782 12
 3.364952 9.339704 12.704675 12
 3.637452 8.120075 11.757602 12
 3.714597 9.291065 13.005691 12
 3.848248 9.314283 13.162560 12
 3.702993 9.434791 13.137805 12
 3.857107 9.455001 13.312132 12
 5.840853 8.968827 14.809685 12
 6.024354 9.014854 15.039209 12
 5.875474 9.096663 14.972143 12
 4.050963 8.481641 12.532652 12
 4.659850 8.878281 13.538156 12
 4.771643 8.955138 13.726798 12
 5.248151 9.549439 14.797610 12
 5.089444 9.635806 14.725262 12
 5.225109 9.663507 14.888624 12
 4.864355 9.365487 14.229856 12
 4.799243 9.464533 14.263785 12
 4.813176 7.911351 12.724578 12
 4.948983 7.864202 12.813233 12
 4.549316 8.906294 13.455632 12
 5.951161 8.879012 14.830176 12
 4.448827 8.208036 12.656923 12
 4.694573 8.537153 13.231754 12
 3.928511 9.222762 13.151302 12
 4.074122 9.245570 13.319709 12
 4.003203 9.356768 13.359993 12
 5.777870 9.287535 15.065405 12
 5.914904 9.298908 15.213809 12
 5.802255 9.410053 15.212304 12
 5.912392 9.415397 15.327787 12
 4.888464 9.546127 14.434597 12
 4.344721 9.139347 13.484090 12
 4.397971 9.039911 13.437907 12
 5.397138 9.790697 15.187838 12
 5.040743 7.991185 13.031968 12
 5.087064 7.877637 12.964737 12
 3.862267 9.882134 13.744410 12
 4.557470 9.579404 14.136886 12
 4.409207 9.553614 13.962832 12
 4.558940 9.462377 14.021334 12
 4.451516 9.419845 13.871377 12
 3.667729 8.858192 12.525965 12
 4.534422 7.490746 12.025232 12
 4.536436 7.376394 11.912891 12
 4.672927 7.475581 12.148559 12
 4.652640 7.350923 12.003617 12
 5.846289 8.591111 14.437409 12
 5.914955 8.744390 14.659342 12
 4.635546 8.455350 13.090934 12
 4.588533 8.601883 13.190452 12
 4.478090 8.516355 12.994479 12
 4.973298 8.502631 13.475960 12
 4.180976 9.319201 13.500199 12
 4.115375 9.448175 13.563567 12
 4.743224 8.436479 13.179742 12
 6.186282 9.712640 15.898929 12
 6.141191 9.618241 15.759431 12
 6.285971 9.581976 15.867951 12
 4.911258 9.657254 14.568521 12
 4.263486 9.510584 13.774081 12
 4.325822 9.399570 13.725415 12
 4.007149 7.706590 11.713811 12
 4.576108 7.607667 12.183827 12
 3.910711 9.593875 13.504603 12
 4.386937 7.957093 12.344093 12
 4.280149 8.028477 12.308688 12
 4.251044 7.871155 12.122258 12
 3.474867 9.459817 12.934706 12
 3.348336 9.496619 12.844985 12
 3.496610 9.345310 12.841944 12
 4.938622 9.210174 14.148802 12
 4.341845 9.257669 13.599529 12
 4.711037 7.794382 12.505470 12
 5.956855 8.621002 14.577865 12
 4.079746 9.898533 13.978290 12
 3.463461 9.594523 13.058006 12
 3.323871 9.619709 12.943604 12
 3.404548 9.731742 13.136305 12
 4.083990 8.923274 13.007294 12
 3.944699 8.990733 12.935468 12
 3.989815 8.849579 12.839427 12
 4.971705 8.284924 13.256670 12
 4.976001 8.131276 13.107317 12
 5.019590 9.767318 14.786916 12
 5.617157 9.754135 15.371289 12
 5.728519 9.697784 15.426305 12
 5.782080 9.823995 15.606076 12
 5.658605 9.881393 15.539999 12
 3.754241 9.597116 13.351372 12
 3.595502 9.551279 13.146805 12
 3.532054 9.698666 13.230736 12
 3.990979 9.487936 13.478934 12
 4.346334 9.701820 14.048170 12
 4.437894 9.836925 14.274826 12
 4.289364 9.844871 14.134242 12
 2.930575 9.774561 12.705149 12
 3.023593 9.671023 12.694636 12
 3.057844 9.830734 12.888591 12
 5.361442 9.235927 14.597377 12
 5.476700 9.225661 14.702366 12
 5.444541 9.386308 14.830853 12
 4.468042 7.715165 12.183276 12
 4.502781 7.876628 12.379471 12
 4.367325 7.805503 12.172893 12
 4.584562 7.758676 12.343289 12
 4.387048 8.081140 12.468249 12
 4.226120 9.176881 13.403022 12
 3.181200 9.641978 12.823194 12
 3.292801 9.734212 13.027027 12
 3.139652 9.752715 12.892385 12
 6.155670 9.054038 15.209712 12
 6.189645 8.950685 15.140338 12
 3.649877 9.659216 13.309120 12
 6.099037 8.875254 14.974292 12
 3.358270 9.867215 13.225485 12
 3.758244 7.836802 11.595124 12
 4.193398 8.227467 12.420922 12
 4.153456 7.978736 12.132259 12
 4.177986 8.088549 12.266595 12
 4.026791 8.054142 12.080998 12
 4.579339 9.775171 14.354517 12
 4.491577 9.682027 14.173619 12
 4.655893 9.654855 14.310760 12
 4.447915 8.350212 12.798175 12
 4.308178 8.162348 12.470579 12
 6.153409 9.522855 15.676269 12
 3.537035 9.225267 12.762327 12
 3.434815 9.243501 12.678344 12
 3.455557 9.105533 12.561118 12
 4.443876 8.669430 13.113338 12
 5.601561 9.025578 14.627142 12
 5.607803 9.159656 14.767461 12
 3.910329 7.913257 11.823660 12
 5.072101 8.187603 13.259746 12
 4.581558 8.759679 13.341258 12
 4.106899 8.169879 12.276841 12
 3.333333 10.000000 13.333333 12
 5.287799 9.750173 15.037971 12
 3.532003 8.938999 12.471038 12
 3.589677 9.086582 12.676291 12
 6.464293 9.583187 16.047499 12
 4.105875 9.132679 13.238579 12
 5.305802 8.228199 13.534029 12
 4.707977 7.588343 12.296376 12
 5.513700 9.525151 15.038854 12
 4.770649 7.392766 12.163460 12
 5.555555 10.000000 15.555555 12
 5.416667 10.000000 15.416667 12
 5.510119 9.866122 15.376244 12
 5.194096 9.013437 14.207545 12
 4.056133 9.035362 13.091529 12
 4.951414 7.741698 12.693162 12
 5.676312 9.257267 14.933586 12
 5.751612 9.154735 14.906346 12
 4.352052 8.542392 12.894488 12
 5.019200 7.792492 12.811737 12
 5.102235 8.506653 13.608909 12
 5.407197 9.504215 14.911414 12
 5.720436 8.623577 14.344019 12
 5.606541 8.533944 14.140500 12
 5.725996 8.491804 14.217814 12
 5.151985 9.824062 14.976057 12
 5.070296 9.897686 14.967989 12
 5.425395 8.066589 13.492013 12
 5.626382 8.655936 14.282328 12
 3.764626 7.978360 11.743053 12
 4.698600 7.260993 11.959638 12
 5.311906 9.455657 14.767570 12
 5.147015 9.724869 14.871885 12
 4.257246 8.596165 12.853451 12
 4.145428 8.562978 12.708445 12
 6.250000 10.000000 16.250000 12
 6.111111 10.000000 16.111111 12
 6.181142 9.858657 16.039810 12
 4.597871 7.963859 12.561792 12
 4.314149 8.687351 13.001534 12
 4.001079 8.619575 12.620702 12
 5.180929 8.201887 13.382851 12
 6.388434 9.671264 16.059706 12
 4.472039 8.800057 13.272128 12
 5.230484 9.305805 14.536290 12
 5.261732 9.161214 14.422959 12
 3.815947 9.000827 12.816801 12
 5.323923 9.351140 14.675073 12
 5.401987 8.855069 14.257061 12
 6.302894 9.706076 16.008976 12
 4.449424 9.311433 13.760879 12
 5.284117 8.831192 14.115317 12
 3.055556 10.000000 13.055556 12
 2.958133 9.896220 12.854363 12
 5.860522 9.198224 15.058747 12
 5.447165 8.199057 13.646253 12
 3.384366 7.927693 11.312140 12
 3.246407 7.816896 11.063386 12
 4.900376 8.008267 12.908699 12
 4.998565 8.691900 13.690488 12
 4.142662 7.770654 11.913387 12
 4.062350 7.835704 11.898126 12
 5.982752 9.153278 15.136032 12
 3.722469 9.726491 13.448967 12
 5.972222 10.000000 15.972221 12
 5.898700 9.885500 15.784204 12
 6.060734 9.888889 15.949630 12
 5.153835 9.233645 14.387485 12
 3.640723 8.979976 12.620725 12
 3.963344 8.167383 12.130797 12
 3.081324 9.268017 12.349372 12
 6.297576 8.948071 15.245644 12
 6.219924 8.820246 15.040180 12
 5.215716 9.421371 14.637094 12
 4.106539 8.681413 12.787994 12
 5.389453 9.894346 15.283803 12
 3.142503 9.012094 12.154644 12
 3.269875 8.919956 12.189877 12
 4.783399 8.029253 12.812708 12
 5.836073 9.651634 15.487705 12
 5.519876 8.638554 14.158436 12
 5.384756 8.631455 14.016223 12
 5.327545 8.743096 14.070647 12
 4.859877 9.151567 14.011461 12
 3.349836 7.708594 11.058526 12
 5.720968 9.035899 14.756867 12
 6.099948 9.147806 15.247745 12
 5.375149 9.146306 14.521464 12
 4.368837 8.434118 12.802999 12
 6.244683 9.457056 15.701735 12
 3.715698 8.424626 12.140383 12
 6.100932 9.407632 15.508570 12
 4.531622 8.420821 12.952487 12
 6.199639 9.344516 15.544161 12
 4.562901 8.315740 12.878686 12
 4.031507 7.932813 11.964394 12
 5.480383 8.766965 14.247354 12
 3.953669 7.810437 11.764179 12
 5.567767 9.303588 14.871362 12
 3.668547 7.791031 11.459662 12
 3.995246 9.121576 13.116856 12
 4.852577 8.123547 12.976168 12
 3.745319 9.851737 13.597061 12
 3.155647 9.894982 13.050633 12
 6.054611 9.284513 15.339124 12
 4.444445 10.000000 14.444445 12
 4.543991 9.895347 14.439345 12
 5.694445 10.000000 15.694445 12
 5.982413 8.487105 14.469528 12
 5.215215 8.747265 13.962488 12
 3.750000 10.000000 13.750000 12
 4.250460 8.816812 13.067308 12
 4.368865 8.786231 13.155128 12
 4.325902 8.925805 13.251735 12
 5.870399 9.754210 15.624609 12
 5.993177 9.780726 15.773903 12
 6.560266 9.486866 16.047131 12
 3.555865 8.817285 12.373195 12
 6.008992 8.708517 14.717515 12
 6.067565 8.626242 14.693815 12
 6.106747 8.749391 14.856143 12
 6.201482 8.650692 14.852180 12
 3.713003 8.075606 11.788688 12
 3.734553 8.954844 12.689429 12
 3.394715 8.972930 12.367681 12
 4.698592 8.771091 13.469709 12
 3.096404 9.548437 12.644864 12
 3.224978 9.529265 12.754267 12
 5.576140 8.729132 14.305286 12
 4.213342 9.427270 13.640625 12
 3.919992 8.025494 11.945562 12
 4.127783 8.810086 12.937906 12
 4.209990 8.931535 13.141560 12
 4.148323 8.448848 12.597227 12
 4.305555 10.000000 14.305555 12
 4.186213 9.892676 14.078898 12
 5.590402 8.831272 14.421687 12
 3.888889 10.000000 13.888889 12
 3.608349 9.325408 12.933789 12
 3.612837 9.785014 13.397861 12
 5.640282 9.603033 15.243320 12
 5.124939 8.088936 13.213910 12
 3.651424 9.198225 12.849682 12
 5.000000 10.000000 15.000000 12
 4.861111 10.000000 14.861111 12
 4.913227 9.878787 14.792020 12
 4.030770 8.744462 12.775268 12
 4.722222 10.000000 14.722221 12
 4.583333 10.000000 14.583333 12
 4.672441 9.880175 14.552613 12
 6.555438 9.633027 16.188473 12
 4.068501 9.585863 13.654382 12
 4.565258 9.317526 13.882795 12
 6.164565 9.233966 15.398523 12
 3.505209 8.273164 11.778442 12
 3.625255 8.229438 11.854765 12
 4.212398 8.713079 12.925511 12
 3.249555 9.409588 12.659175 12
 3.618646 8.343740 11.962458 12
 4.368891 9.918979 14.287871 12
 5.284987 9.862564 15.147552 12
 4.251238 7.728322 11.979632 12
 5.138889 10.000000 15.138889 12
 5.198089 9.915951 15.114038 12
 2.916667 10.000000 12.916667 12
 4.166667 10.000000 14.166667 12
 3.823353 8.107009 11.930432 12
 4.141549 7.641022 11.782646 12
 3.801892 8.497043 12.298988 12
 6.303110 9.885636 16.188738 12
 6.379928 9.784677 16.164606 12
 6.485882 9.713652 16.199539 12
 6.498373 9.849589 16.347967 12
 6.527778 10.000000 16.527779 12
 6.405153 9.898450 16.303596 12
 4.667230 7.685610 12.352897 12
 4.614072 7.870597 12.484724 12
 4.361379 7.659491 12.020934 12
 4.454059 7.580986 12.035112 12
 3.240989 9.832903 13.073907 12
 4.357193 7.543555 11.900808 12
 4.433757 8.899753 13.333529 12
 4.140000 7.877362 12.017439 12
 6.388889 10.000000 16.388889 12
 3.580338 9.431469 13.011829 12
 3.627092 7.551364 11.178540 12
 2.830021 9.875804 12.705832 12
 3.721320 9.071493 12.792849 12
 3.862135 9.102349 12.964517 12
 4.671092 9.415395 14.086494 12
 4.757458 9.336107 14.093578 12
 5.997921 9.375944 15.373863 12
 2.983458 9.338620 12.322105 12
 3.125162 9.365748 12.490933 12
 3.039750 9.448254 12.488030 12
 5.115304 7.631296 12.746640 12
 5.028214 7.709449 12.737708 12
 6.264444 9.787251 16.051693 12
 3.785517 9.194808 12.980359 12
 6.019511 8.795521 14.815041 12
 6.096767 9.787628 15.884399 12
 4.174572 9.047209 13.221810 12
 4.249196 9.746644 13.995846 12
 4.290026 9.051939 13.341992 12
 3.603919 7.676636 11.280643 12
 5.277778 10.000000 15.277779 12
 4.670959 9.291055 13.962024 12
 3.755050 7.484173 11.239306 12
 4.679265 9.535705 14.214981 12
 3.155239 9.457389 12.612645 12
 4.027778 10.000000 14.027779 12
 5.833333 10.000000 15.833333 12
 4.564543 7.276639 11.841239 12
 4.783470 9.602942 14.386423 12
 4.796529 9.717548 14.514084 12
 3.194444 10.000000 13.194444 12
 4.693612 9.760940 14.454563 12
 6.276409 9.249656 15.526063 12
 4.306518 9.603655 13.910192 12
 3.916076 8.502984 12.419112 12
 4.163507 9.540902 13.704430 12
 4.207045 9.648600 13.855657 12
 5.125394 7.766198 12.891635 12
 5.565848 9.414798 14.980654 12
 4.791667 9.921261 14.712932 12
 4.791667 9.816274 14.607944 12
 4.258708 7.599420 11.858192 12
 3.733426 8.174810 11.908304 12
 3.510660 7.636990 11.147739 12
 3.451617 8.848603 12.300262 12
 5.363317 8.144968 13.508319 12
 5.763889 9.924757 15.688643 12
 5.727032 9.496281 15.223307 12
 5.626346 9.486788 15.113135 12
 5.761691 9.596926 15.358614 12
 3.451642 7.720843 11.172574 12
 5.676509 9.380824 15.057331 12
 4.440694 7.457618 11.898376 12
 4.961455 9.310482 14.271950 12
 6.344052 9.144920 15.488973 12
 6.056384 9.693966 15.750355 12
 4.886454 9.767436 14.653900 12
 4.698055 7.935896 12.634008 12
 3.256537 9.919020 13.175561 12
 5.581451 8.925284 14.506740 12
 3.962588 9.923513 13.886102 12
 6.217739 9.146187 15.363929 12
 4.850798 9.263067 14.113874 12
 5.508369 8.877736 14.386111 12
 3.408233 8.183514 11.591825 12
 6.265505 9.053463 15.318966 12
 1 2 3 
 3 2 4 
 5 6 7 
 8 9 10 
 10 9 11 
 12 13 14 
 15 13 12 
 6 16 7 
 17 18 19 
 19 18 20 
 21 22 23 
 24 23 22 
 25 26 27 
 28 29 30 
 31 32 33 
 34 35 36 
 37 36 35 
 38 28 30 
 39 40 41 
 42 17 19 
 10 43 44 
 11 43 10 
 45 43 11 
 46 47 48 
 49 50 51 
 31 52 32 
 53 54 55 
 53 55 56 
 57 58 59 
 59 58 60 
 61 62 63 
 64 63 62 
 65 66 67 
 68 69 70 
 71 72 73 
 74 75 76 
 39 77 40 
 78 79 80 
 81 82 83 
 84 83 82 
 74 2 1 
 85 86 87 
 88 69 68 
 89 85 87 
 90 91 80 
 92 80 91 
 38 93 26 
 94 95 96 
 90 80 79 
 13 97 98 
 15 97 13 
 26 99 27 
 94 100 95 
 101 102 103 
 104 71 105 
 74 106 2 
 107 108 109 
 110 69 88 
 110 88 111 
 112 67 66 
 113 114 115 
 116 115 114 
 117 118 119 
 120 72 71 
 121 122 15 
 63 123 124 
 123 125 124 
 126 62 127 
 34 73 72 
 128 5 129 
 121 15 130 
 117 131 118 
 49 132 50 
 25 133 26 
 134 135 136 
 45 11 108 
 137 138 139 
 140 139 138 
 127 62 141 
 142 143 14 
 134 136 114 
 116 114 136 
 144 102 101 
 145 129 146 
 42 19 147 
 140 41 40 
 148 149 150 
 151 150 149 
 143 12 14 
 78 80 152 
 153 154 155 
 156 155 154 
 85 157 158 
 159 160 161 
 26 93 162 
 163 164 136 
 107 2 106 
 38 26 165 
 166 167 168 
 61 124 169 
 170 171 149 
 172 59 60 
 153 155 173 
 42 174 17 
 175 176 177 
 151 149 171 
 92 152 80 
 178 179 111 
 180 178 111 
 181 48 47 
 163 182 171 
 128 183 5 
 157 184 158 
 49 51 29 
 20 185 19 
 179 186 187 
 188 187 186 
 65 22 66 
 189 190 191 
 92 191 190 
 192 30 193 
 194 169 124 
 195 196 197 
 195 197 198 
 116 174 199 
 200 201 186 
 74 76 106 
 116 136 202 
 203 204 205 
 206 207 208 
 209 210 211 
 42 199 174 
 212 213 214 
 46 48 43 
 212 215 213 
 50 132 216 
 163 217 182 
 218 219 220 
 221 118 222 
 200 223 201 
 163 136 135 
 224 222 118 
 54 225 55 
 57 59 226 
 71 227 105 
 175 213 50 
 228 229 230 
 231 232 233 
 148 233 232 
 234 105 132 
 235 132 105 
 168 167 236 
 237 238 239 
 88 239 238 
 240 161 160 
 241 242 96 
 243 226 59 
 244 192 193 
 121 130 245 
 218 187 219 
 246 230 229 
 61 63 124 
 54 247 225 
 144 248 102 
 125 102 248 
 163 135 217 
 249 250 239 
 251 168 33 
 252 217 135 
 74 1 253 
 155 254 173 
 255 103 102 
 156 256 155 
 257 258 259 
 45 100 260 
 228 177 176 
 203 232 204 
 231 204 232 
 189 261 190 
 5 262 129 
 137 263 264 
 235 227 229 
 240 265 161 
 266 146 129 
 107 109 267 
 102 123 268 
 269 270 271 
 194 272 273 
 81 83 274 
 275 270 269 
 243 276 226 
 156 277 256 
 278 268 123 
 194 279 272 
 104 280 281 
 282 283 284 
 50 213 285 
 240 286 265 
 90 287 91 
 280 265 286 
 74 253 75 
 237 180 238 
 1 3 288 
 3 244 288 
 251 289 168 
 245 130 290 
 209 291 292 
 125 123 102 
 92 190 293 
 209 211 294 
 295 95 100 
 14 182 142 
 116 199 115 
 166 168 296 
 159 133 160 
 14 297 182 
 45 298 100 
 240 160 245 
 299 300 208 
 137 264 301 
 302 75 253 
 24 303 304 
 145 305 129 
 9 306 11 
 172 307 308 
 309 138 301 
 42 310 199 
 311 312 313 
 64 314 291 
 200 115 199 
 309 119 118 
 249 315 250 
 21 276 66 
 246 316 230 
 9 27 99 
 110 317 69 
 255 102 268 
 318 222 319 
 64 320 63 
 237 239 250 
 321 287 281 
 258 322 259 
 271 157 269 
 70 323 324 
 257 259 198 
 51 325 29 
 326 40 77 
 327 270 275 
 107 328 329 
 107 106 328 
 44 48 330 
 175 177 214 
 34 72 35 
 180 111 238 
 85 269 157 
 24 304 331 
 264 242 332 
 241 332 242 
 44 330 97 
 224 319 222 
 221 333 118 
 94 96 334 
 16 155 256 
 65 303 22 
 234 161 335 
 168 336 33 
 92 91 191 
 224 118 131 
 15 12 130 
 37 35 337 
 120 281 287 
 338 336 236 
 117 119 332 
 199 310 223 
 234 339 161 
 159 161 339 
 338 340 336 
 159 341 28 
 235 229 176 
 228 230 342 
 208 207 220 
 295 329 343 
 172 308 344 
 264 332 119 
 345 211 210 
 57 226 346 
 121 8 122 
 134 347 135 
 206 208 300 
 107 267 2 
 348 29 325 
 42 147 349 
 309 118 333 
 299 208 350 
 309 351 138 
 243 344 342 
 64 47 314 
 352 204 353 
 354 257 198 
 355 184 157 
 64 291 320 
 308 342 344 
 45 108 356 
 249 152 315 
 295 298 329 
 357 349 147 
 31 33 336 
 358 359 360 
 329 328 343 
 197 196 361 
 85 89 269 
 327 343 328 
 362 313 312 
 32 363 33 
 78 152 364 
 365 366 367 
 368 367 366 
 249 364 152 
 276 369 66 
 92 370 152 
 309 301 119 
 9 8 27 
 104 265 280 
 249 239 371 
 121 372 8 
 241 96 95 
 15 122 97 
 218 373 374 
 96 242 210 
 218 374 187 
 365 158 184 
 11 306 108 
 94 292 260 
 46 260 292 
 327 275 375 
 5 7 262 
 326 361 196 
 163 171 376 
 116 202 174 
 172 344 59 
 243 342 377 
 51 50 285 
 275 269 89 
 189 378 379 
 358 379 378 
 120 71 380 
 104 380 71 
 381 382 205 
 383 89 87 
 384 357 147 
 237 385 180 
 224 367 319 
 368 319 367 
 386 56 55 
 386 55 201 
 188 201 55 
 227 73 246 
 71 73 227 
 230 377 342 
 189 191 378 
 243 59 344 
 255 387 103 
 145 388 193 
 21 226 276 
 237 250 389 
 390 391 392 
 321 393 287 
 309 333 351 
 394 395 396 
 251 363 397 
 25 245 160 
 231 353 204 
 398 17 174 
 49 29 28 
 272 279 248 
 70 69 323 
 348 193 30 
 107 329 356 
 291 314 292 
 61 141 62 
 46 43 260 
 45 260 43 
 14 13 399 
 400 340 351 
 338 351 340 
 401 67 402 
 280 403 281 
 321 281 403 
 191 393 378 
 110 111 404 
 401 402 405 
 398 174 202 
 188 55 225 
 200 199 223 
 91 287 393 
 352 406 204 
 272 248 407 
 408 214 177 
 145 193 305 
 266 129 262 
 408 177 307 
 175 50 216 
 209 294 291 
 25 372 245 
 121 245 372 
 409 273 410 
 109 108 306 
 299 411 300 
 381 412 382 
 413 377 316 
 230 316 377 
 172 414 307 
 79 337 415 
 282 284 416 
 417 418 419 
 420 421 419 
 422 183 215 
 423 215 183 
 413 276 377 
 243 377 276 
 212 424 425 
 4 2 267 
 413 369 276 
 264 263 242 
 159 339 341 
 426 220 219 
 357 56 349 
 427 425 424 
 428 360 359 
 45 356 298 
 44 97 122 
 88 68 239 
 203 149 232 
 148 232 149 
 177 429 307 
 420 430 421 
 4 267 162 
 109 162 267 
 200 178 431 
 423 285 213 
 113 115 385 
 57 432 58 
 411 433 300 
 434 293 435 
 436 437 127 
 126 127 437 
 104 281 380 
 422 215 173 
 212 173 215 
 140 138 438 
 283 313 284 
 5 183 6 
 439 440 441 
 442 443 7 
 436 150 399 
 151 399 150 
 159 28 165 
 38 165 28 
 166 444 284 
 246 229 227 
 434 435 445 
 409 390 273 
 194 124 279 
 39 41 236 
 338 236 41 
 224 131 446 
 166 284 447 
 189 379 448 
 439 317 440 
 203 205 449 
 395 352 353 
 240 245 290 
 345 210 242 
 182 217 142 
 450 142 217 
 57 451 432 
 195 198 259 
 113 389 445 
 434 445 389 
 189 448 261 
 137 301 138 
 398 202 164 
 136 164 202 
 117 86 131 
 182 297 171 
 151 171 297 
 195 103 387 
 258 452 322 
 452 407 322 
 16 254 155 
 357 53 56 
 179 404 111 
 436 399 453 
 200 186 178 
 348 30 29 
 252 448 217 
 450 217 448 
 14 399 297 
 428 12 143 
 107 356 108 
 60 58 454 
 148 150 455 
 194 273 392 
 49 28 341 
 430 282 416 
 49 341 132 
 234 132 341 
 272 410 273 
 113 445 114 
 134 114 445 
 456 374 373 
 412 457 185 
 422 6 183 
 84 82 146 
 145 146 82 
 81 388 82 
 188 225 219 
 206 300 433 
 311 458 312 
 88 238 111 
 283 311 313 
 44 122 10 
 235 216 132 
 25 160 133 
 212 214 424 
 408 424 214 
 244 193 388 
 117 87 86 
 1 288 253 
 358 360 379 
 390 392 273 
 180 431 178 
 81 288 388 
 156 459 277 
 161 265 335 
 44 43 48 
 195 387 196 
 460 461 233 
 462 299 350 
 109 306 99 
 188 186 201 
 233 461 463 
 175 214 213 
 179 187 374 
 436 455 150 
 246 73 316 
 423 213 215 
 37 337 405 
 400 351 333 
 422 173 254 
 31 464 52 
 395 353 396 
 170 149 465 
 218 220 207 
 151 297 399 
 327 328 76 
 428 130 12 
 188 219 187 
 252 135 347 
 120 287 466 
 20 205 382 
 204 406 205 
 381 205 406 
 231 396 353 
 278 320 294 
 291 294 320 
 398 467 468 
 168 289 296 
 20 449 205 
 398 468 18 
 266 469 146 
 84 146 469 
 144 259 322 
 8 10 122 
 426 219 225 
 81 253 288 
 454 58 432 
 278 294 211 
 106 76 328 
 175 216 176 
 235 176 216 
 113 385 389 
 237 389 385 
 203 465 149 
 348 305 193 
 24 22 303 
 345 470 211 
 255 211 470 
 125 248 279 
 348 325 305 
 128 305 325 
 391 471 392 
 472 392 471 
 278 211 268 
 255 268 211 
 94 260 100 
 179 178 186 
 472 471 396 
 394 396 471 
 244 3 192 
 38 30 192 
 170 468 467 
 109 99 162 
 428 290 130 
 408 414 473 
 20 18 468 
 31 340 464 
 4 93 192 
 203 468 465 
 170 465 468 
 21 66 22 
 386 349 56 
 386 201 223 
 20 468 449 
 203 449 468 
 442 469 443 
 362 361 77 
 413 474 369 
 434 370 293 
 386 310 349 
 42 349 310 
 90 79 415 
 34 36 316 
 413 316 36 
 235 105 227 
 475 432 451 
 327 76 270 
 115 431 385 
 329 298 356 
 4 192 3 
 249 371 476 
 81 274 477 
 458 478 312 
 197 312 478 
 38 192 93 
 218 207 373 
 413 36 474 
 37 474 36 
 117 332 87 
 399 13 453 
 417 419 421 
 479 387 480 
 255 480 387 
 434 315 370 
 479 481 387 
 148 455 233 
 98 97 330 
 251 33 363 
 475 23 482 
 24 482 23 
 428 143 360 
 128 129 305 
 327 375 343 
 436 453 437 
 9 99 306 
 412 185 382 
 208 220 350 
 426 350 220 
 137 139 483 
 479 483 139 
 472 396 463 
 231 463 396 
 398 164 467 
 163 376 164 
 153 484 154 
 181 47 485 
 64 485 47 
 486 52 464 
 345 242 263 
 362 77 487 
 81 477 253 
 200 431 115 
 302 253 477 
 355 366 184 
 427 424 473 
 120 466 72 
 212 425 173 
 21 23 346 
 266 443 469 
 234 335 105 
 104 105 335 
 472 488 392 
 194 392 488 
 92 293 370 
 195 259 101 
 90 466 287 
 70 324 371 
 110 404 440 
 362 312 361 
 197 361 312 
 168 236 336 
 408 307 414 
 460 455 127 
 190 347 435 
 475 451 23 
 430 416 421 
 209 334 210 
 96 210 334 
 128 325 489 
 51 489 325 
 144 101 259 
 144 407 248 
 456 440 404 
 400 464 340 
 241 87 332 
 436 127 455 
 37 405 402 
 352 381 406 
 452 409 410 
 4 162 93 
 39 236 167 
 452 410 407 
 358 286 359 
 450 379 360 
 247 462 490 
 144 322 407 
 383 87 491 
 241 491 87 
 181 330 48 
 134 435 347 
 228 176 229 
 460 233 455 
 128 489 183 
 34 316 73 
 125 279 124 
 423 183 489 
 264 119 301 
 239 68 371 
 417 289 418 
 358 378 403 
 321 403 378 
 391 394 471 
 240 290 359 
 458 354 478 
 131 158 446 
 365 446 158 
 272 407 410 
 457 384 492 
 26 133 165 
 159 165 133 
 24 331 482 
 31 336 340 
 358 403 286 
 37 402 474 
 400 493 464 
 8 372 27 
 126 437 494 
 98 494 437 
 190 435 293 
 145 82 388 
 295 343 495 
 383 495 343 
 91 393 191 
 228 429 177 
 295 100 298 
 408 473 424 
 90 415 466 
 434 250 315 
 479 139 40 
 140 40 139 
 70 371 68 
 345 263 483 
 450 448 379 
 166 296 444 
 112 402 67 
 179 374 404 
 241 95 491 
 450 143 142 
 278 123 320 
 63 320 123 
 137 483 263 
 153 173 425 
 35 466 415 
 456 404 374 
 247 490 225 
 195 101 103 
 460 169 461 
 21 346 226 
 398 18 17 
 65 67 496 
 401 496 67 
 231 233 463 
 434 389 250 
 112 66 369 
 181 485 494 
 126 494 485 
 426 225 490 
 479 480 483 
 19 185 492 
 457 492 185 
 26 162 99 
 460 127 141 
 354 198 478 
 197 478 198 
 365 184 366 
 251 397 418 
 251 418 289 
 120 380 281 
 486 464 493 
 170 467 376 
 164 376 467 
 386 223 310 
 345 483 470 
 387 481 196 
 252 261 448 
 417 421 416 
 134 445 435 
 126 485 62 
 64 62 485 
 326 77 361 
 302 477 274 
 383 343 375 
 456 441 440 
 417 296 289 
 244 388 288 
 295 495 95 
 221 222 497 
 318 497 222 
 234 341 339 
 194 488 169 
 417 416 444 
 112 474 402 
 35 415 337 
 104 335 265 
 110 440 317 
 57 346 451 
 23 451 346 
 224 446 367 
 249 476 364 
 20 382 185 
 170 376 171 
 460 141 169 
 417 444 296 
 46 292 314 
 326 196 481 
 61 169 141 
 166 447 487 
 98 330 494 
 284 444 416 
 365 367 446 
 46 314 47 
 94 334 292 
 209 292 334 
 98 453 13 
 16 6 254 
 190 261 347 
 25 27 372 
 35 72 466 
 228 342 429 
 308 429 342 
 131 86 158 
 85 158 86 
 112 369 474 
 308 307 429 
 180 385 431 
 39 487 77 
 169 488 461 
 152 370 315 
 326 481 40 
 240 359 286 
 156 154 459 
 321 378 393 
 252 347 261 
 19 492 147 
 384 147 492 
 284 313 447 
 362 447 313 
 456 373 441 
 138 351 438 
 338 438 351 
 362 487 447 
 98 437 453 
 51 285 489 
 423 489 285 
 428 359 290 
 479 40 481 
 221 493 333 
 483 480 470 
 95 495 491 
 450 360 143 
 426 490 350 
 472 463 461 
 181 494 330 
 221 497 493 
 400 333 493 
 462 350 490 
 39 167 487 
 166 487 167 
 486 493 497 
 280 286 403 
 275 89 375 
 383 375 89 
 140 438 41 
 427 484 425 
 153 425 484 
 338 41 438 
 422 254 6 
 255 470 480 
 383 491 495 
 266 262 443 
 7 443 262 
 472 461 488 
