TITLE      =  "2D FE Unstructured grid data" 
VARIABLES = "X", "Y", "U", "Dom" 
ZONE T="P1", F=FEPOINT, N= 383 E= 682  ET=TRIANGLE 
 8.113981 6.873288 14.987247 19
 8.089259 6.724121 14.813357 19
 8.217145 6.704888 14.922016 19
 9.238634 6.557529 15.796143 19
 9.209997 6.687902 15.897883 19
 9.073569 6.634866 15.708414 19
 6.244118 7.184323 13.428430 19
 6.266187 7.027318 13.293500 19
 6.347591 7.127566 13.475145 19
 8.199057 5.447165 13.646205 19
 8.251304 5.295807 13.547103 19
 8.331640 5.457134 13.788757 19
 9.128688 6.469355 15.598022 19
 7.670910 7.193274 14.864159 19
 7.707360 7.080917 14.788261 19
 7.787960 7.192854 14.980789 19
 7.842743 7.098644 14.941367 19
 7.331566 6.341513 13.673059 19
 7.210431 6.242014 13.452433 19
 7.370585 6.231817 13.602389 19
 6.362182 7.384542 13.746715 19
 6.409706 7.225019 13.634715 19
 6.497157 7.378639 13.875783 19
 6.993425 6.836701 13.830112 19
 7.114738 6.939888 14.054608 19
 6.971315 7.008838 13.980140 19
 7.144457 7.206719 14.351163 19
 7.307000 7.237937 14.544922 19
 7.226987 7.311540 14.538513 19
 7.708025 5.982225 13.690231 19
 7.537745 5.993568 13.531293 19
 7.569298 5.891051 13.460333 19
 8.554075 6.198953 14.753010 19
 8.398484 6.284443 14.682911 19
 8.440294 6.124748 14.565022 19
 9.782336 6.375421 16.157753 19
 9.714513 6.491006 16.205515 19
 9.647049 6.309723 15.956769 19
 7.265111 7.137614 14.402708 19
 8.889911 6.068428 14.958317 19
 8.876207 5.943291 14.819471 19
 9.011252 6.006241 15.017466 19
 9.449766 6.670732 16.120495 19
 9.491693 6.805404 16.297081 19
 9.328373 6.770059 16.098415 19
 8.370704 5.826476 14.197156 19
 8.212707 5.784408 13.997096 19
 8.353352 5.703722 14.057053 19
 9.516789 5.717927 15.234699 19
 9.396482 5.642149 15.038619 19
 9.580210 5.622232 15.202432 19
 9.573372 6.456118 16.029467 19
 9.475797 6.554090 16.029879 19
 9.598319 6.671058 16.269367 19
 8.537523 6.316555 14.854056 19
 7.865252 6.520246 14.385479 19
 7.986753 6.414214 14.400949 19
 8.011275 6.557845 14.569096 19
 8.998612 6.515900 15.514493 19
 8.508942 5.730789 14.239706 19
 8.491449 5.882424 14.373858 19
 9.510895 6.232086 15.742966 19
 9.597271 6.130297 15.727564 19
 9.711719 6.175150 15.886869 19
 7.588943 6.084669 13.673599 19
 9.026536 5.614038 14.640547 19
 9.006129 5.434222 14.440327 19
 9.121614 5.499931 14.621517 19
 8.001240 6.125637 14.126856 19
 8.113116 6.052567 14.165668 19
 8.129907 6.199393 14.329283 19
 7.702898 5.823640 13.526520 19
 8.291259 6.184776 14.476014 19
 8.223780 6.085759 14.309517 19
 7.430632 7.238840 14.669447 19
 7.552121 7.134439 14.686532 19
 7.569978 7.274607 14.844556 19
 7.867022 6.172415 14.039414 19
 7.878946 6.014209 13.893142 19
 7.017651 7.162090 14.179724 19
 7.078317 7.069114 14.147412 19
 7.785075 6.078959 13.864018 19
 7.880129 5.779633 13.659744 19
 7.827161 5.898561 13.725698 19
 9.633027 6.555438 16.188459 19
 7.227332 6.377385 13.604703 19
 8.893339 5.523998 14.417314 19
 6.528897 7.259480 13.788365 19
 9.389235 6.324122 15.713332 19
 9.279037 6.403996 15.683020 19
 9.273932 6.211929 15.485841 19
 9.151763 6.320628 15.472371 19
 7.622010 6.659157 14.281153 19
 7.784500 6.655800 14.440286 19
 7.683464 6.786697 14.470147 19
 7.793717 7.009913 14.803610 19
 6.290893 6.904168 13.195055 19
 6.397560 6.995712 13.393262 19
 6.405883 6.864030 13.269902 19
 6.911581 7.128113 14.039672 19
 8.248270 5.643020 13.891273 19
 6.862116 6.880311 13.742414 19
 7.711292 6.550242 14.261518 19
 6.677935 6.532219 13.210143 19
 6.720660 6.397946 13.118594 19
 6.806112 6.512841 13.318934 19
 7.432375 6.025464 13.457824 19
 7.330631 6.014463 13.345078 19
 7.445928 5.925075 13.370986 19
 7.292564 6.143494 13.436037 19
 7.547463 6.782708 14.330156 19
 7.610132 6.881110 14.491227 19
 9.166834 6.086993 15.253805 19
 9.019207 6.168121 15.187302 19
 8.157369 5.343278 13.500632 19
 7.547746 6.456608 14.004344 19
 7.570994 6.315656 13.886635 19
 7.653225 6.422995 14.076200 19
 9.740313 5.638144 15.378448 19
 9.818915 5.770711 15.589617 19
 9.723989 5.769244 15.493226 19
 8.470879 5.998748 14.469603 19
 8.331203 6.030407 14.361598 19
 7.451898 6.332393 13.784270 19
 8.128344 6.504840 14.633166 19
 8.153173 6.393335 14.546480 19
 6.840674 6.409237 13.249893 19
 6.696742 7.478108 14.174835 19
 6.654553 7.582757 14.237305 19
 6.600378 7.433842 14.034206 19
 8.221743 6.270603 14.492322 19
 6.542108 7.522443 14.064544 19
 6.755052 6.772868 13.527909 19
 6.775290 6.640496 13.415771 19
 6.890939 6.756567 13.647494 19
 8.735496 6.378618 15.114081 19
 8.753009 6.218511 14.971500 19
 8.849186 6.340629 15.189788 19
 8.799455 6.008124 14.807555 19
 8.295546 6.352772 14.648296 19
 7.416350 6.133093 13.549429 19
 7.492447 6.216510 13.708944 19
 8.608825 5.841091 14.449894 19
 8.750695 5.904475 14.655152 19
 8.598965 5.957848 14.556787 19
 9.878208 5.660171 15.538380 19
 8.868824 6.204435 15.073231 19
 8.746495 5.791094 14.537568 19
 8.390642 6.695442 15.086063 19
 8.322412 6.618354 14.940741 19
 8.929633 6.639293 15.568904 19
 8.847431 6.494970 15.342375 19
 8.786765 6.643507 15.430244 19
 6.950447 6.333149 13.283587 19
 6.936630 6.474407 13.411025 19
 6.628255 6.795046 13.423291 19
 6.654490 6.668553 13.323024 19
 7.408843 7.126603 14.535425 19
 8.648005 5.639409 14.287395 19
 8.803871 5.700864 14.504704 19
 8.645694 5.751071 14.396746 19
 6.579016 7.137706 13.716707 19
 6.660239 7.031088 13.691319 19
 6.706936 7.148492 13.855411 19
 9.038133 5.778345 14.816444 19
 8.926873 5.746908 14.673750 19
 7.190681 7.054890 14.245552 19
 7.051257 6.380390 13.431630 19
 6.812208 7.044554 13.856754 19
 8.960310 5.866012 14.826292 19
 7.720278 7.311679 15.031928 19
 7.647130 6.204130 13.851239 19
 7.906146 6.626646 14.532768 19
 6.836936 6.272779 13.109695 19
 6.707098 6.267285 12.974364 19
 8.948379 6.302454 15.250812 19
 8.703649 6.529664 15.233289 19
 6.900599 6.621822 13.522401 19
 9.035880 6.385995 15.421853 19
 8.573090 6.070598 14.643667 19
 6.979423 6.705133 13.684542 19
 7.119430 6.782479 13.901896 19
 7.078156 6.658418 13.736558 19
 8.410294 5.534955 13.945235 19
 8.480675 5.451016 13.931677 19
 6.802744 7.636057 14.438785 19
 6.940618 7.663868 14.604471 19
 6.841384 7.754109 14.595476 19
 6.434163 6.527350 12.961500 19
 6.460231 6.637274 13.097492 19
 6.340768 6.646847 12.987606 19
 9.507947 6.351065 15.858999 19
 9.136582 5.963425 15.099977 19
 9.259523 5.967681 15.227178 19
 7.158202 7.461568 14.619752 19
 6.990125 7.435170 14.425279 19
 7.130754 7.349192 14.479932 19
 9.387253 6.096727 15.483964 19
 9.282792 6.069672 15.352447 19
 9.305101 5.776990 15.082076 19
 9.427407 5.788477 15.215871 19
 9.403490 6.204954 15.608433 19
 6.882695 7.457458 14.340139 19
 6.758337 7.389542 14.147859 19
 6.906394 7.355773 14.262151 19
 8.699404 6.020217 14.719604 19
 9.143147 5.736123 14.879242 19
 7.042936 6.486008 13.528934 19
 7.994339 7.206226 15.200544 19
 8.021855 7.314355 15.336185 19
 7.888251 7.288100 15.176326 19
 7.991849 6.253964 14.245795 19
 9.184378 5.857446 15.041803 19
 10.000000 6.111111 16.111111 19
 10.000000 6.250000 16.250000 19
 9.862522 6.180937 16.043457 19
 9.060925 5.898763 14.959656 19
 8.893772 5.636862 14.530606 19
 8.600173 6.425545 15.025690 19
 7.991162 5.553521 13.544665 19
 7.851661 5.591433 13.443081 19
 7.907560 5.478063 13.385610 19
 9.238060 5.686774 14.924813 19
 7.514866 6.585629 14.100478 19
 7.421852 6.461104 13.882942 19
 7.396502 6.566244 13.962736 19
 7.451444 6.685929 14.137354 19
 7.303811 6.638126 13.941920 19
 6.784105 7.514131 14.298218 19
 7.937647 5.676692 13.614326 19
 7.139313 6.342252 13.481547 19
 8.795938 5.589827 14.385739 19
 7.047115 7.545722 14.592819 19
 9.239473 5.574383 14.813836 19
 9.153767 5.622250 14.775993 19
 7.766601 6.415366 14.181954 19
 8.875700 6.782248 15.657936 19
 9.336540 5.877294 15.213818 19
 10.000000 5.972222 15.972221 19
 9.890016 6.067082 15.957105 19
 9.884097 5.897996 15.782094 19
 6.830453 7.287535 14.117971 19
 8.010467 7.001027 15.011471 19
 7.938938 6.872695 14.811614 19
 6.550437 6.430156 12.980578 19
 7.204169 7.596014 14.800167 19
 6.488848 6.925975 13.414812 19
 8.877501 5.404268 14.281743 19
 8.761273 5.468201 14.229444 19
 7.346310 6.753424 14.099722 19
 8.297964 5.907558 14.205503 19
 7.894273 7.177075 15.071327 19
 6.909560 7.540865 14.450411 19
 8.053024 5.415451 13.468454 19
 8.133616 5.564425 13.698031 19
 7.713061 6.929952 14.642997 19
 9.647109 5.717340 15.364438 19
 6.552126 6.569087 13.121201 19
 6.538285 6.701602 13.239874 19
 9.346112 6.510459 15.856549 19
 9.334600 6.631521 15.966103 19
 6.817706 7.185980 14.003669 19
 8.196648 5.955211 14.151842 19
 7.698123 6.095406 13.793512 19
 7.808046 6.816317 14.624345 19
 7.876116 6.314047 14.190145 19
 7.873680 6.415968 14.289633 19
 7.024794 7.314281 14.339058 19
 6.311791 7.282618 13.594400 19
 10.000000 5.555555 15.555555 19
 10.000000 5.694445 15.694445 19
 8.237376 6.574747 14.812112 19
 8.260412 6.466754 14.727147 19
 8.372476 6.533932 14.906385 19
 6.631719 7.227518 13.859222 19
 6.922612 7.239156 14.161743 19
 6.706133 7.730347 14.436464 19
 9.786703 5.994103 15.780805 19
 8.210576 7.000502 15.211062 19
 8.104674 7.104176 15.208830 19
 8.112045 6.987551 15.099576 19
 8.547714 5.569932 14.117620 19
 6.722287 6.909847 13.632118 19
 8.370759 6.427242 14.797982 19
 8.471024 6.393604 14.864616 19
 8.071892 6.321529 14.393395 19
 8.648626 6.277834 14.926439 19
 7.996258 6.763969 14.760206 19
 8.675888 5.541084 14.216952 19
 8.626511 5.438052 14.064540 19
 9.428583 6.433308 15.861869 19
 8.739789 5.350778 14.090540 19
 6.523942 7.618282 14.142214 19
 6.425355 7.527565 13.952909 19
 7.998260 6.668141 14.666388 19
 7.965806 5.893101 13.858889 19
 8.087477 5.855208 13.942677 19
 8.088157 5.952601 14.040743 19
 8.012184 6.007595 14.019765 19
 9.775592 6.264836 16.040421 19
 8.391885 5.929610 14.321478 19
 7.826413 6.922435 14.748828 19
 7.895785 7.002352 14.898112 19
 9.764725 6.604926 16.369644 19
 7.457831 7.028260 14.486067 19
 8.581032 6.579071 15.160083 19
 7.420647 6.829785 14.250408 19
 7.499552 6.909820 14.409352 19
 7.901898 6.730320 14.632199 19
 9.139549 6.204449 15.343977 19
 7.609828 6.534926 14.144736 19
 7.003452 6.582570 13.586008 19
 6.533076 7.023215 13.556277 19
 7.201639 6.555224 13.756845 19
 7.141817 6.454616 13.596422 19
 7.288534 6.484237 13.772749 19
 9.885636 6.303110 16.188734 19
 7.759062 6.161599 13.920641 19
 6.465974 7.128116 13.594080 19
 8.936102 6.409224 15.345289 19
 9.854586 6.498920 16.353500 19
 10.000000 6.527778 16.527779 19
 9.898450 6.405153 16.303591 19
 7.307018 7.490772 14.797772 19
 8.068089 5.721681 13.789757 19
 8.781055 6.104211 14.885246 19
 9.544719 5.824807 15.369516 19
 9.655012 5.846220 15.501221 19
 7.256520 6.959765 14.216263 19
 10.000000 6.388889 16.388889 19
 8.482416 6.500474 14.982863 19
 7.583470 6.996770 14.580217 19
 7.666794 6.311472 13.978247 19
 9.789057 6.096117 15.885168 19
 6.594790 6.921363 13.516140 19
 8.661390 6.660290 15.321656 19
 9.058955 6.276330 15.335263 19
 8.516747 6.686068 15.202790 19
 6.621301 7.323880 13.945162 19
 8.668210 6.148387 14.816574 19
 7.769765 6.274017 14.043773 19
 9.915918 6.578643 16.494558 19
 6.958768 6.202483 13.161229 19
 6.618821 6.336739 12.955551 19
 8.725403 6.775643 15.501020 19
 6.571133 7.724998 14.296126 19
 10.000000 5.833333 15.833333 19
 7.180607 6.662320 13.842911 19
 7.334547 7.043273 14.377808 19
 8.339474 5.584421 13.923879 19
 8.255172 5.537175 13.792340 19
 7.176009 6.071414 13.247400 19
 8.052216 5.626583 13.678782 19
 7.987830 5.785263 13.773078 19
 8.151960 5.664776 13.816725 19
 6.512930 6.825555 13.338472 19
 7.209267 6.859083 14.068334 19
 7.246343 6.760936 14.007261 19
 7.250477 7.403278 14.653735 19
 7.358154 7.360455 14.718591 19
 8.121071 6.622148 14.743198 19
 9.924757 5.763889 15.688634 19
 7.958073 7.099554 15.057604 19
 8.104228 7.239747 15.343956 19
 7.105238 6.561436 13.666659 19
 9.367978 5.986574 15.354538 19
 9.758597 5.873807 15.632402 19
 8.438113 5.630522 14.068614 19
 10.000000 6.666667 16.666668 19
 7.309304 6.852346 14.161633 19
 8.845331 5.824608 14.669911 19
 7.377767 6.940284 14.318029 19
 9.495859 6.116432 15.612272 19
 6.725146 7.264184 13.989311 19
 6.427768 6.742944 13.170706 19
 9.674578 5.954826 15.629400 19
 9.565812 5.926412 15.492210 19
 8.450120 6.602623 15.052718 19
 9.458397 5.899045 15.357425 19
 9.592882 6.025506 15.618386 19
 9.483365 6.009024 15.492377 19
 9.694324 6.063309 15.757627 19
 7.062410 6.272943 13.335342 19
 1 2 3 
 4 5 6 
 7 8 9 
 10 11 12 
 13 4 6 
 14 15 16 
 17 16 15 
 18 19 20 
 21 22 23 
 24 25 26 
 27 28 29 
 30 31 32 
 33 34 35 
 36 37 38 
 39 28 27 
 40 41 42 
 43 44 45 
 46 47 48 
 49 50 51 
 52 38 37 
 43 53 54 
 33 55 34 
 56 57 58 
 59 13 6 
 60 61 46 
 62 63 38 
 63 64 38 
 30 65 31 
 66 67 68 
 60 46 48 
 69 70 71 
 30 32 72 
 73 71 74 
 75 76 77 
 69 78 79 
 80 26 81 
 79 78 82 
 72 83 84 
 54 53 85 
 18 86 19 
 66 87 67 
 22 88 23 
 89 90 91 
 92 91 90 
 93 94 95 
 17 15 96 
 8 97 98 
 99 98 97 
 100 26 80 
 101 48 47 
 24 26 102 
 93 103 94 
 104 105 106 
 107 108 109 
 110 20 19 
 93 95 111 
 112 111 95 
 113 114 42 
 10 115 11 
 116 117 118 
 119 120 121 
 122 35 123 
 116 124 117 
 58 57 125 
 126 125 57 
 127 106 105 
 128 129 130 
 73 131 71 
 130 129 132 
 133 134 135 
 136 137 138 
 71 70 74 
 40 139 41 
 140 131 34 
 107 65 141 
 142 141 65 
 14 76 15 
 143 144 145 
 119 146 120 
 137 147 138 
 131 73 34 
 148 144 143 
 149 3 150 
 59 151 152 
 153 152 151 
 127 154 155 
 133 156 157 
 75 158 76 
 159 160 161 
 162 163 164 
 43 54 44 
 66 165 166 
 73 123 35 
 39 27 167 
 154 168 155 
 169 26 100 
 41 170 42 
 14 171 77 
 142 65 172 
 56 58 173 
 127 105 174 
 175 174 105 
 40 114 147 
 176 147 114 
 136 152 177 
 81 26 25 
 178 135 134 
 59 179 13 
 92 13 179 
 122 180 35 
 181 182 24 
 183 182 181 
 184 12 185 
 186 187 188 
 189 190 191 
 89 62 192 
 113 193 194 
 195 196 197 
 198 91 199 
 200 50 201 
 198 202 91 
 8 98 9 
 113 194 199 
 148 161 160 
 203 204 205 
 107 31 65 
 206 145 144 
 66 207 165 
 208 155 168 
 209 210 211 
 69 71 212 
 200 213 207 
 214 215 216 
 217 42 170 
 60 143 61 
 66 166 218 
 136 177 219 
 220 221 222 
 33 35 180 
 200 223 50 
 89 202 62 
 116 224 225 
 81 167 27 
 226 227 228 
 229 186 129 
 128 229 129 
 220 230 221 
 231 19 86 
 232 160 159 
 233 196 195 
 234 235 68 
 92 90 13 
 56 103 236 
 153 151 237 
 200 238 213 
 239 240 241 
 242 205 204 
 243 244 1 
 104 245 105 
 233 195 246 
 127 174 154 
 169 164 163 
 153 177 152 
 14 77 76 
 99 247 98 
 248 87 249 
 66 68 235 
 126 131 140 
 113 42 193 
 194 213 238 
 40 42 114 
 232 249 87 
 227 250 228 
 142 124 20 
 18 20 124 
 46 251 47 
 209 211 252 
 233 253 196 
 60 161 143 
 220 254 255 
 10 255 254 
 112 95 256 
 119 257 51 
 104 258 245 
 189 245 258 
 259 157 156 
 207 213 165 
 217 165 213 
 49 201 50 
 260 53 261 
 43 261 53 
 169 262 164 
 148 143 161 
 263 123 74 
 30 264 65 
 200 207 223 
 66 235 207 
 133 157 134 
 95 265 256 
 266 212 57 
 56 267 57 
 142 172 117 
 268 80 27 
 269 7 9 
 22 269 9 
 234 50 223 
 270 271 146 
 272 273 274 
 169 102 26 
 169 100 262 
 162 164 275 
 263 74 70 
 13 90 4 
 268 276 80 
 260 4 90 
 186 188 277 
 278 241 240 
 43 45 261 
 5 261 45 
 279 280 281 
 56 94 103 
 60 282 159 
 169 283 102 
 140 34 284 
 285 284 34 
 119 121 257 
 126 286 131 
 126 140 273 
 136 219 287 
 268 197 196 
 2 1 288 
 226 225 224 
 159 282 289 
 289 282 290 
 52 291 192 
 248 249 292 
 52 53 291 
 73 35 34 
 203 196 253 
 62 38 192 
 203 229 204 
 60 159 161 
 290 292 249 
 233 187 253 
 113 199 91 
 21 269 22 
 132 293 294 
 58 295 173 
 296 297 298 
 296 298 299 
 136 138 152 
 36 38 300 
 69 79 299 
 296 299 79 
 30 72 84 
 133 135 102 
 30 84 79 
 116 225 124 
 52 85 53 
 122 123 301 
 302 244 303 
 69 299 70 
 304 54 85 
 1 244 288 
 305 76 158 
 133 102 283 
 136 287 137 
 89 91 202 
 220 222 254 
 306 219 177 
 307 111 308 
 64 300 38 
 296 79 84 
 95 94 265 
 309 265 94 
 302 256 265 
 112 308 111 
 243 303 244 
 279 281 1 
 113 91 310 
 92 310 91 
 93 311 103 
 178 155 312 
 232 159 289 
 311 116 118 
 162 313 163 
 314 315 316 
 178 106 155 
 103 311 118 
 226 228 316 
 314 316 228 
 263 251 123 
 186 277 129 
 215 317 216 
 318 82 78 
 73 74 123 
 22 319 88 
 59 152 320 
 304 37 321 
 36 321 37 
 322 321 323 
 324 246 195 
 325 47 297 
 285 34 55 
 162 88 319 
 40 147 326 
 137 326 147 
 272 274 150 
 263 47 251 
 316 315 86 
 49 257 327 
 328 327 257 
 169 163 283 
 81 25 167 
 329 167 25 
 89 291 90 
 260 90 291 
 104 106 134 
 59 6 151 
 263 297 47 
 330 322 323 
 52 192 38 
 306 331 219 
 285 219 331 
 214 216 240 
 57 212 286 
 307 227 111 
 186 253 187 
 15 76 332 
 64 216 300 
 333 118 117 
 24 182 25 
 64 334 216 
 335 283 163 
 153 336 177 
 113 310 114 
 176 114 337 
 219 55 287 
 306 336 338 
 305 332 76 
 103 118 236 
 39 158 28 
 71 131 286 
 128 130 204 
 339 204 130 
 24 102 135 
 33 340 287 
 302 265 244 
 132 294 23 
 21 23 294 
 333 341 236 
 266 236 341 
 243 1 281 
 285 55 219 
 304 321 342 
 194 193 213 
 215 330 317 
 154 174 343 
 137 287 340 
 263 70 298 
 245 344 105 
 153 237 345 
 309 244 265 
 346 129 277 
 347 239 241 
 183 348 182 
 39 167 349 
 329 349 167 
 239 214 240 
 30 79 82 
 274 273 284 
 217 193 42 
 335 156 283 
 18 124 225 
 184 350 12 
 12 350 351 
 226 224 227 
 93 227 224 
 110 108 141 
 122 61 145 
 268 27 197 
 29 197 27 
 133 283 156 
 93 111 227 
 110 352 108 
 15 332 256 
 112 256 332 
 143 145 61 
 339 23 88 
 220 353 230 
 325 230 353 
 304 85 37 
 306 177 336 
 126 57 286 
 335 163 313 
 325 354 230 
 75 28 158 
 101 47 355 
 325 355 47 
 259 156 356 
 56 173 94 
 152 138 320 
 178 134 106 
 274 284 331 
 285 331 284 
 329 25 357 
 358 182 348 
 324 195 359 
 56 236 267 
 266 267 236 
 309 288 244 
 266 57 267 
 333 236 118 
 318 341 172 
 333 172 341 
 248 67 87 
 75 360 28 
 29 28 360 
 128 204 229 
 81 27 80 
 307 250 227 
 2 295 361 
 58 361 295 
 18 225 316 
 290 282 185 
 107 141 108 
 142 117 124 
 132 129 293 
 120 362 241 
 347 241 362 
 346 293 129 
 333 117 172 
 66 218 87 
 36 323 321 
 104 134 157 
 243 280 363 
 209 363 280 
 39 349 158 
 358 357 182 
 325 297 354 
 322 342 321 
 296 84 83 
 104 157 258 
 259 258 157 
 259 190 258 
 189 258 190 
 242 262 276 
 100 276 262 
 209 280 364 
 101 255 351 
 10 351 255 
 183 365 348 
 198 199 366 
 296 354 297 
 318 78 341 
 266 341 78 
 59 320 179 
 358 228 250 
 243 281 280 
 110 19 352 
 49 51 257 
 278 367 241 
 120 241 367 
 272 150 3 
 217 213 193 
 60 368 282 
 330 323 317 
 206 340 180 
 194 366 199 
 69 212 78 
 266 78 212 
 335 356 156 
 40 326 139 
 322 369 342 
 358 370 357 
 176 179 320 
 166 371 160 
 314 348 365 
 132 23 130 
 339 130 23 
 153 345 336 
 324 359 360 
 29 360 359 
 10 254 115 
 232 87 218 
 260 291 53 
 305 349 372 
 305 372 308 
 89 192 291 
 112 332 308 
 216 317 300 
 36 300 317 
 110 141 20 
 184 185 282 
 271 347 362 
 176 337 179 
 92 179 337 
 99 356 247 
 70 299 298 
 62 202 373 
 198 373 202 
 33 180 340 
 242 374 262 
 122 145 180 
 99 375 356 
 328 376 377 
 306 338 378 
 49 327 201 
 379 201 327 
 33 287 55 
 226 316 225 
 380 373 381 
 328 257 121 
 220 255 353 
 101 355 255 
 195 197 359 
 29 359 197 
 259 356 375 
 149 150 378 
 206 326 340 
 206 180 145 
 184 282 368 
 380 63 373 
 14 16 171 
 211 171 16 
 120 146 362 
 271 362 146 
 52 37 85 
 274 378 150 
 166 160 218 
 164 262 374 
 36 317 323 
 176 138 147 
 175 105 344 
 358 348 228 
 314 228 348 
 380 382 63 
 64 63 382 
 231 383 19 
 263 298 297 
 60 48 368 
 208 312 155 
 162 275 88 
 101 350 48 
 2 361 3 
 272 3 361 
 148 160 371 
 306 378 331 
 25 182 357 
 18 316 86 
 230 354 83 
 140 284 273 
 278 376 367 
 71 286 212 
 162 319 313 
 98 313 319 
 100 80 276 
 335 247 356 
 5 4 261 
 260 261 4 
 22 9 319 
 178 312 181 
 183 181 312 
 278 382 376 
 24 135 181 
 154 343 383 
 114 310 337 
 92 337 310 
 309 94 173 
 232 289 249 
 329 372 349 
 259 375 190 
 290 249 289 
 32 31 109 
 107 109 31 
 126 273 125 
 272 125 273 
 358 250 370 
 307 370 250 
 64 382 334 
 149 378 338 
 329 370 372 
 380 377 376 
 208 168 315 
 231 315 168 
 318 172 264 
 65 264 172 
 231 86 315 
 339 88 275 
 307 308 372 
 243 363 303 
 17 303 363 
 234 223 235 
 207 235 223 
 309 295 288 
 242 204 374 
 122 301 61 
 46 61 301 
 127 155 106 
 191 190 375 
 307 372 370 
 305 308 332 
 339 374 204 
 328 367 376 
 328 377 327 
 10 12 351 
 98 319 9 
 200 201 238 
 379 238 201 
 183 312 365 
 142 20 141 
 305 158 349 
 98 247 313 
 335 313 247 
 148 371 144 
 41 144 371 
 380 376 382 
 123 251 301 
 178 181 135 
 296 83 354 
 198 366 381 
 17 96 303 
 302 303 96 
 217 170 165 
 166 165 170 
 268 205 276 
 379 377 381 
 380 381 377 
 302 96 256 
 15 256 96 
 208 315 365 
 58 125 361 
 309 173 295 
 2 288 295 
 328 121 367 
 120 367 121 
 379 381 366 
 176 320 138 
 268 196 205 
 232 218 160 
 242 276 205 
 278 240 334 
 272 361 125 
 314 365 315 
 329 357 370 
 116 311 224 
 216 334 240 
 93 224 311 
 208 365 312 
 274 331 378 
 379 366 238 
 137 340 326 
 339 275 374 
 278 334 382 
 198 381 373 
 211 16 252 
 194 238 366 
 101 351 350 
 203 205 196 
 206 139 326 
 166 170 371 
 41 371 170 
 379 327 377 
 209 252 363 
 17 363 252 
 30 82 264 
 209 364 210 
 206 144 139 
 41 139 144 
 203 253 229 
 186 229 253 
 62 373 63 
 164 374 275 
 255 355 353 
 325 353 355 
 154 383 168 
 231 168 383 
 46 301 251 
 318 264 82 
 17 252 16 
 48 350 368 
 184 368 350 
