TITLE      =  "2D FE Unstructured grid data" 
VARIABLES = "X", "Y", "U", "Dom" 
ZONE T="P1", F=FEPOINT, N= 385 E= 689  ET=TRIANGLE 
 2.266543 4.837543 7.104136 6
 2.354569 4.780239 7.134856 6
 2.362011 4.940258 7.302322 6
 2.475768 4.831185 7.307003 6
 3.232097 6.046488 9.278674 6
 3.313665 6.154677 9.468420 6
 3.153175 6.102249 9.255505 6
 2.064463 5.800741 7.865279 6
 1.933685 5.698942 7.632698 6
 2.098961 5.691370 7.790404 6
 3.309231 5.982487 9.291800 6
 3.141533 5.941434 9.083052 6
 1.945885 5.835670 7.781626 6
 3.291459 5.875754 9.167300 6
 1.597471 5.537529 7.135056 6
 1.534143 5.440955 6.975148 6
 1.696365 5.417908 7.114333 6
 2.866452 6.026040 8.892575 6
 2.981438 5.978270 8.959789 6
 2.938483 6.124635 9.063198 6
 1.605105 5.323936 6.929093 6
 3.052152 6.061598 9.113835 6
 2.973837 5.854323 8.828243 6
 2.857029 5.780483 8.637591 6
 3.046258 5.754431 8.800769 6
 2.916168 5.671409 8.587654 6
 1.625208 4.773975 6.399223 6
 1.634479 4.644356 6.278877 6
 1.755826 4.672694 6.428562 6
 1.747181 4.815470 6.562695 6
 2.628444 4.929286 7.557787 6
 2.494393 5.003564 7.498013 6
 4.723909 5.068506 9.792435 6
 4.847394 4.979242 9.826649 6
 4.890870 5.132880 10.023759 6
 1.723917 5.896436 7.620419 6
 1.803463 6.010889 7.814424 6
 1.660720 6.017687 7.678476 6
 1.720692 6.157330 7.878097 6
 1.845991 4.317462 6.163485 6
 1.710832 4.271868 5.982731 6
 1.848897 4.146701 5.995628 6
 4.243496 4.933706 9.177226 6
 4.234445 4.810615 9.045082 6
 4.356071 4.907642 9.263736 6
 3.989424 5.286408 9.275880 6
 4.150170 5.339636 9.489847 6
 4.049580 5.430021 9.479647 6
 4.102524 5.218718 9.321277 6
 2.848079 5.061532 7.909673 6
 2.716476 5.031258 7.747794 6
 2.764699 4.932348 7.697101 6
 2.881194 4.935314 7.816564 6
 2.107111 6.010770 8.117966 6
 2.195521 6.087101 8.282701 6
 2.088281 6.169971 8.258329 6
 3.406950 5.209372 8.616373 6
 3.306184 5.104462 8.410703 6
 3.421729 5.051481 8.473266 6
 2.005201 5.571858 7.577128 6
 1.972178 4.097893 6.070097 6
 1.844278 3.966350 5.810652 6
 4.596781 5.505511 10.102317 6
 4.634031 5.393753 10.027810 6
 4.767055 5.487215 10.254293 6
 1.948714 4.534981 6.483732 6
 1.952836 4.392175 6.345045 6
 2.077769 4.478052 6.555857 6
 3.213394 5.191581 8.405032 6
 3.298322 5.287309 8.585695 6
 2.677975 4.403424 7.081431 6
 2.632258 4.578031 7.210330 6
 2.560628 4.436356 6.997017 6
 3.965637 4.859202 8.824863 6
 4.098414 4.774844 8.873279 6
 4.116724 4.919291 9.036043 6
 1.998426 6.103631 8.102138 6
 3.629506 5.674319 9.303893 6
 3.675593 5.526574 9.202226 6
 3.741936 5.683527 9.425525 6
 3.789196 5.580353 9.369609 6
 2.748864 4.504391 7.253293 6
 1.696916 6.314753 8.011741 6
 1.592284 6.279613 7.871966 6
 2.218435 4.216924 6.435385 6
 2.368239 4.274683 6.642952 6
 2.195001 4.360684 6.555716 6
 2.319805 4.424444 6.744285 6
 2.162099 4.878536 7.040687 6
 2.217421 4.707479 6.924947 6
 3.447616 5.752425 9.200117 6
 3.519192 5.612889 9.132149 6
 3.560547 5.764571 9.325185 6
 3.203882 5.822182 9.026143 6
 4.403582 5.393932 9.797551 6
 4.367148 5.274304 9.641474 6
 4.506149 5.309174 9.815349 6
 1.708725 4.146117 5.854867 6
 2.076948 4.795655 6.872649 6
 3.001331 5.595352 8.596760 6
 3.073294 5.462520 8.535890 6
 3.104973 5.640267 8.745316 6
 3.036210 5.285058 8.321340 6
 3.164217 5.324009 8.488292 6
 2.639488 5.494450 8.134008 6
 2.767023 5.534519 8.301620 6
 2.638286 5.646004 8.284370 6
 2.791103 5.659033 8.450212 6
 3.285072 4.974949 8.260070 6
 1.590164 6.121782 7.712013 6
 4.725826 4.925068 9.650899 6
 3.423122 6.009644 9.432846 6
 3.420814 4.912316 8.333178 6
 3.522639 5.143044 8.665728 6
 3.803937 5.090874 8.894853 6
 3.644509 5.074558 8.719111 6
 3.738236 4.948034 8.686308 6
 2.883681 5.235128 8.118878 6
 2.739348 5.145971 7.885380 6
 2.747687 5.279744 8.027501 6
 2.054163 4.363466 6.417664 6
 2.211415 4.472812 6.684266 6
 3.754881 5.387010 9.141945 6
 3.830001 5.262227 9.092271 6
 3.897923 5.397285 9.295249 6
 1.473827 5.352179 6.826057 6
 1.516472 5.222009 6.738527 6
 3.989231 4.708849 8.698104 6
 2.559604 4.702583 7.262234 6
 2.620094 4.801671 7.421813 6
 2.369568 5.111186 7.480812 6
 2.405827 5.246504 7.652393 6
 2.282167 5.236704 7.518932 6
 1.981885 4.254064 6.235984 6
 3.189224 4.781227 7.970493 6
 3.283570 4.849749 8.133362 6
 3.133970 4.921449 8.055474 6
 2.723489 4.742270 7.465807 6
 3.945071 5.537083 9.482205 6
 3.818583 5.480961 9.299598 6
 2.249674 5.133719 7.383450 6
 2.958092 5.380297 8.338459 6
 2.482970 5.945004 8.428057 6
 2.594559 5.844851 8.439487 6
 2.656853 5.952880 8.609815 6
 2.499365 5.572994 8.072434 6
 2.526701 5.421016 7.947785 6
 4.559124 5.076210 9.635352 6
 4.616161 4.974397 9.590570 6
 3.049341 4.632110 7.681489 6
 2.900057 4.632640 7.532735 6
 2.965014 4.544440 7.509488 6
 2.946177 4.744067 7.690290 6
 1.819209 5.788214 7.607491 6
 4.886099 5.298410 10.184521 6
 4.771914 5.224289 9.996221 6
 2.266217 6.002661 8.268949 6
 2.244823 5.896971 8.141869 6
 2.139534 5.880462 8.020076 6
 3.416707 5.654121 9.070899 6
 3.519774 5.432137 8.951975 6
 2.056813 4.649498 6.706353 6
 1.783377 6.277089 8.060545 6
 4.440813 5.201459 9.642300 6
 2.573590 6.040870 8.614542 6
 3.306064 4.596165 7.902262 6
 3.447032 4.666956 8.114023 6
 3.290806 4.717952 8.008797 6
 3.381533 4.790601 8.172175 6
 2.505281 5.722375 8.227733 6
 2.360957 5.697104 8.058133 6
 1.541535 4.288084 5.829649 6
 1.557101 4.441323 5.998458 6
 1.435274 4.418665 5.853972 6
 3.482398 4.827260 8.309691 6
 2.614580 5.068915 7.683555 6
 2.373101 5.553058 7.926230 6
 4.650256 5.168060 9.818336 6
 3.565191 4.752255 8.317482 6
 2.196571 6.194947 8.391599 6
 2.346585 6.143816 8.490479 6
 2.282090 6.289904 8.572076 6
 2.958561 5.491240 8.449877 6
 3.652773 5.830866 9.483714 6
 3.510746 5.861794 9.372619 6
 1.554171 5.074500 6.628716 6
 1.649491 5.183521 6.833064 6
 3.387095 5.854040 9.241213 6
 1.997262 3.961263 5.958542 6
 2.215323 5.675426 7.890824 6
 2.220497 5.793075 8.013643 6
 3.182012 5.557523 8.739608 6
 2.170873 4.567527 6.738441 6
 1.666563 4.399127 6.065725 6
 2.334530 5.834524 8.169134 6
 2.293629 4.533353 6.827023 6
 2.364146 4.641335 7.005524 6
 1.511669 4.565185 6.076890 6
 1.487731 4.716579 6.204349 6
 2.146028 5.581932 7.728033 6
 1.620126 4.919281 6.539449 6
 1.745081 4.939768 6.684893 6
 4.228453 5.249140 9.477628 6
 4.223283 5.113678 9.336988 6
 4.090350 5.075854 9.166236 6
 4.772575 5.352796 10.125387 6
 4.897430 5.420352 10.317797 6
 1.592145 4.171113 5.763286 6
 1.690180 5.050747 6.740974 6
 1.852256 4.457335 6.309626 6
 1.884973 6.114752 7.999795 6
 3.189896 5.445690 8.635650 6
 4.009738 4.968693 8.978456 6
 3.616906 5.228161 8.845115 6
 3.632662 5.360464 8.993184 6
 3.724198 5.187801 8.912044 6
 1.914454 5.282464 7.196973 6
 2.052919 5.351081 7.404063 6
 1.933411 5.425395 7.358869 6
 1.678203 3.965249 5.643478 6
 1.757389 4.056217 5.813632 6
 1.939620 5.144183 7.083856 6
 1.848137 5.192117 7.040309 6
 1.825933 5.051859 6.877840 6
 1.959572 5.977446 7.937093 6
 4.979389 5.225710 10.205104 6
 3.749798 4.799947 8.549773 6
 3.696275 4.709718 8.406026 6
 3.841367 4.732700 8.574095 6
 2.468989 4.628735 7.097766 6
 2.523161 4.529856 7.053054 6
 1.862262 6.226519 8.088860 6
 1.912050 6.310066 8.222190 6
 4.349597 5.130523 9.480152 6
 1.659293 6.444950 8.104316 6
 1.954613 6.582535 8.537232 6
 1.978818 6.434281 8.413174 6
 2.088911 6.516935 8.605925 6
 2.142704 5.215140 7.357903 6
 2.197273 5.369653 7.566994 6
 1.949055 4.990519 6.939621 6
 2.078709 4.956062 7.034819 6
 2.046958 5.102517 7.149529 6
 3.185332 5.716519 8.901931 6
 1.492842 5.722325 7.215221 6
 1.599322 5.826808 7.426190 6
 1.484004 5.872913 7.356977 6
 1.854272 5.900525 7.754865 6
 1.853078 6.394500 8.247650 6
 2.843946 5.346820 8.190835 6
 3.064560 6.175085 9.239729 6
 1.758602 5.662060 7.420725 6
 1.720629 5.535300 7.255991 6
 1.859047 5.557207 7.416318 6
 2.019053 5.225721 7.244830 6
 2.118942 4.284904 6.403878 6
 2.823711 4.393661 7.217408 6
 3.102245 5.190632 8.292946 6
 3.193439 5.063548 8.257041 6
 3.065319 4.494302 7.559652 6
 3.173604 4.555604 7.729240 6
 2.442650 4.721149 7.163849 6
 1.758916 5.154770 6.913739 6
 2.525452 5.281466 7.806985 6
 2.634807 5.354449 7.989324 6
 1.512895 5.982413 7.495368 6
 1.963672 4.855675 6.819395 6
 3.613718 4.608540 8.222277 6
 1.753081 6.410414 8.163571 6
 2.093771 4.187382 6.281180 6
 3.554677 4.894423 8.449132 6
 3.533933 5.005734 8.539711 6
 3.077426 5.065394 8.142879 6
 2.976465 4.996763 7.973280 6
 2.980428 4.866797 7.847279 6
 2.161426 5.086014 7.247489 6
 2.191758 4.977833 7.169644 6
 4.186042 5.012258 9.198329 6
 1.738686 4.527773 6.266497 6
 1.624204 4.521267 6.145507 6
 2.411756 5.449990 7.861815 6
 2.181320 6.395429 8.576825 6
 2.078305 6.379520 8.457904 6
 3.947360 5.059838 9.007237 6
 3.918432 5.171042 9.089517 6
 2.776603 4.618862 7.395507 6
 2.085275 4.074595 6.159891 6
 2.515239 6.158843 8.674163 6
 2.465141 6.063437 8.528658 6
 3.315720 5.737246 9.053050 6
 4.449084 4.999966 9.449069 6
 2.849089 4.819247 7.668388 6
 2.815677 6.244118 9.059880 6
 2.660096 6.213124 8.873305 6
 2.796990 6.126307 8.923377 6
 2.264250 4.935091 7.199394 6
 2.862094 4.510117 7.372249 6
 2.703638 6.067058 8.770779 6
 2.384405 6.022806 8.407286 6
 2.839083 4.711417 7.550543 6
 1.373677 4.553658 5.927368 6
 1.812431 5.456323 7.268818 6
 2.524874 4.329898 6.854806 6
 2.440646 4.411197 6.851876 6
 2.626641 5.202529 7.829235 6
 2.444946 5.828526 8.273545 6
 2.717163 4.844965 7.562182 6
 3.251264 5.385256 8.636583 6
 3.381427 5.371530 8.753022 6
 3.278691 5.499142 8.777896 6
 3.077367 4.789127 7.866540 6
 1.768899 4.404296 6.173234 6
 1.632814 5.711406 7.344280 6
 3.409681 5.515831 8.925579 6
 3.649375 4.834450 8.483861 6
 3.166606 4.677914 7.844559 6
 2.986669 5.144243 8.130976 6
 2.200501 5.493474 7.694046 6
 2.304739 5.460426 7.765233 6
 1.762124 5.277796 7.039974 6
 1.837731 5.358323 7.196113 6
 2.089673 5.470119 7.559857 6
 2.327956 5.344021 7.672043 6
 4.274296 5.361598 9.635931 6
 1.860227 6.496627 8.356931 6
 2.438673 5.348428 7.787169 6
 2.771141 5.990453 8.761676 6
 2.741679 5.866411 8.608171 6
 2.704592 5.756721 8.461391 6
 3.875270 4.965647 8.840949 6
 4.314944 5.007007 9.321970 6
 1.845996 4.885234 6.731273 6
 4.203794 5.453638 9.657469 6
 4.104136 5.545857 9.650038 6
 2.194062 4.086891 6.280977 6
 2.506077 5.152360 7.658498 6
 3.510435 5.292639 8.803132 6
 4.650166 5.279795 9.929990 6
 3.338020 5.587583 8.925679 6
 4.464545 5.116072 9.580639 6
 3.624146 4.951439 8.575625 6
 1.866666 4.740505 6.607213 6
 1.598852 5.928372 7.527290 6
 2.274977 5.033824 7.308856 6
 4.517680 5.427602 9.945313 6
 1.708726 5.785487 7.494277 6
 2.359648 5.921749 8.281472 6
 2.021545 6.303704 8.325325 6
 4.460289 5.534797 9.995121 6
 4.314150 5.465457 9.779647 6
 4.021440 5.155866 9.177350 6
 3.713630 5.288313 9.001992 6
 3.834062 4.861106 8.695194 6
 4.097756 4.656532 8.754308 6
 2.266949 5.578924 7.845946 6
 2.043949 5.901158 7.945182 6
 2.613141 6.119974 8.733197 6
 1.762708 6.517904 8.280684 6
 2.885120 5.567744 8.452939 6
 1.935556 3.863652 5.799230 6
 4.546166 5.191502 9.737690 6
 1.980952 4.739970 6.720965 6
 1.847712 4.590309 6.438064 6
 2.861234 5.904022 8.765338 6
 2.606400 5.743266 8.349740 6
 1.516116 4.814785 6.330940 6
 3.243331 5.637528 8.880930 6
 2.401201 4.527609 6.928847 6
 1.424073 4.634500 6.058604 6
 2.755666 5.402276 8.158017 6
 1.940171 4.651053 6.591268 6
 4.894711 5.543684 10.438410 6
 2.874966 5.450286 8.325323 6
 5.018191 5.345380 10.363577 6
 4.216404 4.703088 8.919506 6
 5.004020 5.485520 10.489552 6
 2.138969 6.287920 8.426972 6
 2.956564 4.427278 7.383871 6
 4.228028 5.563161 9.791230 6
 1.632625 4.071932 5.704584 6
 1.458034 5.570761 7.028849 6
 1.556930 5.627866 7.184854 6
 1.823849 6.603411 8.427341 6
 1.654394 5.613462 7.267916 6
 1.962033 6.206042 8.168152 6
 1 2 3 
 2 4 3 
 5 6 7 
 8 9 10 
 11 5 12 
 13 9 8 
 14 11 12 
 15 16 17 
 18 19 20 
 16 21 17 
 19 22 20 
 23 24 25 
 24 26 25 
 27 28 29 
 27 29 30 
 4 31 32 
 33 34 35 
 36 37 38 
 39 38 37 
 40 41 42 
 43 44 45 
 46 47 48 
 49 47 46 
 4 32 3 
 50 51 52 
 50 52 53 
 54 55 56 
 57 58 59 
 60 10 9 
 61 42 62 
 63 64 65 
 23 25 12 
 66 67 68 
 69 58 70 
 71 72 73 
 74 75 76 
 77 54 56 
 70 58 57 
 22 12 7 
 78 79 80 
 81 80 79 
 82 72 71 
 12 5 7 
 39 83 84 
 85 86 87 
 88 87 86 
 1 89 90 
 91 92 93 
 12 25 94 
 95 96 97 
 98 42 41 
 90 89 99 
 100 101 102 
 103 104 101 
 105 106 107 
 108 107 106 
 109 59 58 
 39 84 110 
 33 111 34 
 6 11 112 
 109 113 59 
 57 59 114 
 78 93 92 
 115 116 117 
 50 118 119 
 120 119 118 
 121 87 68 
 6 5 11 
 87 122 68 
 123 124 125 
 46 125 124 
 21 126 127 
 74 128 75 
 4 129 130 
 131 132 133 
 40 42 134 
 135 136 137 
 138 129 72 
 139 81 140 
 4 130 31 
 131 133 141 
 103 101 142 
 143 144 145 
 105 146 147 
 33 148 149 
 150 151 152 
 150 153 151 
 13 154 9 
 155 156 35 
 33 35 156 
 157 54 158 
 159 158 54 
 91 160 92 
 78 92 79 
 161 79 92 
 99 162 90 
 39 163 83 
 164 97 96 
 143 145 165 
 166 167 168 
 169 168 167 
 109 137 136 
 170 171 146 
 172 173 174 
 169 167 175 
 176 31 51 
 52 51 31 
 177 146 171 
 33 178 148 
 167 179 175 
 33 149 111 
 180 181 182 
 100 183 101 
 184 185 93 
 186 187 127 
 112 11 188 
 61 62 189 
 190 191 10 
 10 191 8 
 105 107 146 
 101 192 102 
 193 90 162 
 172 41 194 
 195 191 171 
 193 196 90 
 197 90 196 
 198 28 199 
 27 199 28 
 60 200 10 
 27 30 201 
 202 201 30 
 190 171 191 
 203 49 204 
 205 204 49 
 172 194 173 
 65 206 207 
 123 140 79 
 172 208 41 
 186 209 187 
 112 188 185 
 66 210 67 
 121 68 67 
 39 37 211 
 101 104 212 
 74 76 213 
 103 142 118 
 214 114 116 
 123 79 215 
 115 216 116 
 214 116 216 
 157 181 55 
 180 55 181 
 21 16 126 
 217 218 219 
 81 79 140 
 180 56 55 
 220 62 221 
 222 223 224 
 139 125 48 
 46 48 125 
 77 211 225 
 37 225 211 
 155 35 226 
 227 228 229 
 78 80 184 
 230 231 72 
 129 230 72 
 232 233 163 
 231 73 72 
 203 204 234 
 83 235 84 
 155 207 206 
 131 3 32 
 203 234 96 
 236 237 238 
 239 240 218 
 241 242 243 
 244 94 25 
 245 246 247 
 36 248 37 
 233 249 163 
 118 142 250 
 22 251 20 
 252 253 254 
 252 254 9 
 23 12 19 
 22 19 12 
 239 218 255 
 217 255 218 
 121 134 256 
 14 188 11 
 82 71 257 
 69 258 259 
 150 260 261 
 4 262 129 
 263 224 223 
 264 265 147 
 105 147 265 
 13 248 154 
 161 215 79 
 266 38 110 
 241 267 242 
 268 179 167 
 249 269 163 
 134 270 256 
 176 32 31 
 271 272 113 
 99 242 267 
 39 211 232 
 273 274 137 
 275 137 274 
 62 42 221 
 205 213 76 
 276 242 277 
 243 242 276 
 205 76 278 
 14 12 94 
 252 9 154 
 77 225 54 
 279 280 194 
 138 130 129 
 177 281 146 
 147 146 281 
 282 238 283 
 44 76 75 
 44 43 76 
 61 134 42 
 115 284 285 
 115 285 124 
 138 72 286 
 61 189 287 
 61 270 134 
 288 181 289 
 273 259 258 
 14 94 290 
 148 291 149 
 275 292 153 
 293 294 295 
 1 3 296 
 39 232 163 
 151 286 297 
 298 295 294 
 157 299 181 
 241 222 224 
 21 127 187 
 292 300 153 
 198 301 174 
 302 254 253 
 303 304 86 
 120 265 305 
 264 305 265 
 195 171 306 
 52 31 307 
 308 309 310 
 135 137 311 
 279 194 312 
 245 313 246 
 309 314 310 
 239 255 243 
 193 162 68 
 66 68 162 
 227 117 315 
 241 243 222 
 166 168 316 
 50 274 317 
 273 317 274 
 50 119 51 
 60 9 254 
 318 240 319 
 198 174 173 
 83 163 269 
 98 41 208 
 170 146 107 
 238 237 283 
 100 25 26 
 320 321 17 
 318 322 240 
 14 290 188 
 166 316 261 
 271 113 175 
 323 319 240 
 170 306 171 
 103 118 317 
 218 240 322 
 263 187 209 
 249 233 237 
 95 324 96 
 249 237 325 
 218 322 219 
 60 219 322 
 264 147 326 
 18 295 327 
 82 297 286 
 205 284 213 
 328 144 329 
 115 330 284 
 116 114 272 
 331 291 234 
 74 229 128 
 302 17 321 
 179 228 315 
 241 332 267 
 268 228 179 
 46 124 285 
 59 113 272 
 308 212 104 
 333 334 48 
 85 270 335 
 241 224 332 
 131 32 336 
 50 317 118 
 115 117 330 
 159 8 191 
 139 48 334 
 264 132 336 
 57 337 309 
 161 309 337 
 338 64 97 
 150 316 311 
 314 160 339 
 190 10 200 
 92 160 314 
 291 340 234 
 116 341 117 
 342 267 332 
 36 343 246 
 328 329 24 
 108 24 329 
 150 311 153 
 139 140 125 
 151 153 300 
 21 187 320 
 161 92 314 
 69 259 58 
 131 344 3 
 21 320 17 
 97 64 345 
 275 311 137 
 65 64 206 
 36 246 346 
 243 255 222 
 170 144 306 
 143 306 144 
 143 347 306 
 348 237 233 
 150 152 260 
 60 322 200 
 273 137 259 
 109 259 137 
 95 349 350 
 205 351 284 
 50 53 274 
 236 325 237 
 74 213 330 
 284 330 213 
 123 352 124 
 99 89 242 
 115 124 216 
 298 327 295 
 155 206 156 
 338 156 206 
 227 353 117 
 78 184 93 
 354 75 128 
 190 355 171 
 177 171 355 
 57 114 337 
 214 337 114 
 117 341 315 
 279 29 28 
 159 54 356 
 131 336 132 
 157 55 54 
 239 243 276 
 244 290 94 
 298 294 357 
 120 118 250 
 121 67 134 
 40 134 67 
 36 38 343 
 59 272 114 
 263 320 187 
 88 86 304 
 275 53 292 
 358 269 325 
 108 106 359 
 91 93 185 
 328 145 144 
 36 154 248 
 108 329 107 
 37 248 225 
 62 360 189 
 148 178 361 
 249 325 269 
 342 30 29 
 202 332 224 
 15 17 253 
 195 306 347 
 99 267 362 
 176 119 305 
 120 305 119 
 342 29 363 
 23 19 364 
 74 353 229 
 18 20 295 
 101 212 192 
 13 225 248 
 342 362 267 
 252 154 346 
 170 107 365 
 52 307 292 
 138 292 307 
 27 366 199 
 161 337 215 
 214 215 337 
 1 90 2 
 197 2 90 
 108 359 26 
 288 357 294 
 266 343 38 
 194 280 173 
 60 254 219 
 302 219 254 
 252 346 313 
 339 367 310 
 192 310 367 
 333 48 47 
 151 297 152 
 176 336 32 
 18 364 19 
 98 221 42 
 198 280 28 
 342 332 30 
 39 110 38 
 197 368 230 
 198 199 369 
 161 314 309 
 105 370 106 
 186 201 209 
 202 209 201 
 264 336 305 
 105 265 370 
 275 274 53 
 27 201 366 
 170 365 144 
 46 351 49 
 203 47 49 
 323 133 132 
 181 299 289 
 279 28 280 
 88 122 87 
 164 361 97 
 338 97 361 
 57 309 70 
 308 70 309 
 52 292 53 
 342 363 371 
 65 207 372 
 373 106 370 
 239 141 133 
 120 370 265 
 197 196 368 
 231 304 73 
 263 223 320 
 217 320 223 
 85 87 256 
 155 226 374 
 85 256 270 
 69 70 104 
 308 104 70 
 193 68 122 
 46 285 351 
 231 368 304 
 144 365 329 
 227 315 228 
 66 363 210 
 279 210 363 
 99 362 162 
 217 321 320 
 331 204 278 
 131 141 344 
 303 71 73 
 373 250 142 
 279 312 210 
 239 276 141 
 138 300 292 
 354 375 75 
 338 178 156 
 33 156 178 
 23 364 24 
 91 188 290 
 217 219 321 
 246 313 346 
 271 179 315 
 54 225 356 
 239 133 240 
 376 207 374 
 155 374 207 
 82 286 72 
 66 162 371 
 348 283 237 
 298 165 145 
 180 182 377 
 282 377 182 
 339 310 314 
 378 297 257 
 109 136 113 
 169 113 136 
 271 175 179 
 277 242 89 
 40 67 210 
 270 287 335 
 61 287 270 
 318 200 322 
 328 24 364 
 121 256 87 
 109 58 259 
 103 317 258 
 176 305 336 
 266 247 343 
 246 343 247 
 203 324 47 
 333 47 324 
 331 234 204 
 333 379 334 
 164 96 234 
 331 43 45 
 293 295 20 
 217 222 255 
 331 278 43 
 202 30 332 
 13 356 225 
 192 367 102 
 244 102 367 
 323 240 133 
 378 152 297 
 277 344 276 
 141 276 344 
 220 221 380 
 98 380 221 
 231 230 368 
 164 340 361 
 148 361 340 
 318 319 355 
 177 355 319 
 273 258 317 
 284 351 285 
 135 311 316 
 245 381 382 
 88 196 122 
 100 359 183 
 82 257 297 
 120 250 370 
 169 175 113 
 135 168 136 
 169 136 168 
 108 26 24 
 143 299 347 
 123 125 140 
 143 165 289 
 339 160 290 
 91 290 160 
 338 206 64 
 214 352 215 
 63 345 64 
 205 278 204 
 318 355 200 
 190 200 355 
 373 359 106 
 176 51 119 
 135 316 168 
 100 102 25 
 244 25 102 
 44 75 375 
 91 185 188 
 198 173 280 
 236 383 325 
 36 346 154 
 15 381 16 
 245 382 313 
 88 368 196 
 378 260 152 
 95 97 345 
 194 41 312 
 40 312 41 
 302 321 219 
 117 353 330 
 217 223 222 
 205 49 351 
 275 153 311 
 31 130 307 
 69 104 258 
 103 258 104 
 148 340 291 
 279 363 29 
 40 210 312 
 252 313 384 
 288 165 357 
 339 290 367 
 328 327 145 
 123 215 352 
 323 281 319 
 76 43 278 
 271 315 341 
 143 289 299 
 244 367 290 
 277 89 296 
 198 369 301 
 100 26 359 
 95 345 349 
 63 349 345 
 338 361 178 
 331 45 291 
 298 145 327 
 323 132 326 
 264 326 132 
 333 350 379 
 323 326 281 
 288 289 165 
 328 364 327 
 358 235 269 
 298 357 165 
 348 56 377 
 98 208 380 
 162 362 371 
 18 327 364 
 15 382 381 
 150 261 316 
 203 96 324 
 214 216 352 
 95 350 324 
 333 324 350 
 373 370 250 
 227 229 353 
 193 122 196 
 263 209 224 
 202 224 209 
 74 330 353 
 180 377 56 
 376 372 207 
 1 296 89 
 83 269 235 
 303 73 304 
 348 377 283 
 302 253 17 
 342 371 362 
 129 262 230 
 197 262 2 
 124 352 216 
 77 385 211 
 232 211 385 
 197 230 262 
 358 325 383 
 164 234 340 
 157 347 299 
 107 329 365 
 373 183 359 
 252 384 253 
 15 253 384 
 373 142 183 
 151 300 286 
 138 286 300 
 195 158 191 
 88 304 368 
 66 371 363 
 282 283 377 
 177 319 281 
 348 385 56 
 77 56 385 
 138 307 130 
 101 183 142 
 192 212 310 
 308 310 212 
 271 341 272 
 116 272 341 
 348 233 385 
 232 385 233 
 313 382 384 
 4 2 262 
 147 281 326 
 22 7 251 
 3 344 296 
 277 296 344 
 195 347 158 
 157 158 347 
 13 8 356 
 159 356 8 
 159 191 158 
 15 384 382 
