TITLE      =  "2D FE Unstructured grid data" 
VARIABLES = "X", "Y", "U", "Dom" 
ZONE T="P1", F=FEPOINT, N= 408 E= 735  ET=TRIANGLE 
 5.221864 8.314909 13.536796 5
 5.194563 8.453780 13.648363 5
 5.103426 8.308444 13.411898 5
 5.039473 8.409187 13.448689 5
 4.792192 8.827494 13.619699 5
 4.900336 8.739722 13.640073 5
 4.900708 8.889679 13.790401 5
 5.018963 8.822566 13.841544 5
 4.518532 9.039821 13.558372 5
 4.623083 9.182564 13.805657 5
 4.474886 9.182805 13.657706 5
 4.643481 9.022559 13.666055 5
 6.801157 9.515192 16.316355 5
 6.687997 9.444273 16.132273 5
 6.839583 9.404687 16.244282 5
 6.547130 9.231997 15.779127 5
 6.642835 9.095756 15.738593 5
 6.670410 9.223898 15.894304 5
 3.984750 9.683025 13.667789 5
 4.081141 9.703469 13.784620 5
 3.991364 9.808573 13.799946 5
 6.759707 9.315547 16.075258 5
 4.154042 9.791286 13.945333 5
 6.485560 9.116166 15.601727 5
 4.690049 8.661431 13.351508 5
 4.815514 8.530622 13.346167 5
 4.799302 8.686742 13.486064 5
 4.711200 8.307444 13.018691 5
 4.741633 8.163024 12.904709 5
 4.860852 8.234040 13.094936 5
 5.725996 8.491804 14.217815 5
 5.840215 8.416333 14.256555 5
 5.846289 8.591111 14.437407 5
 5.982413 8.487105 14.469523 5
 6.329707 9.377750 15.707456 5
 6.492596 9.347685 15.840285 5
 6.401016 9.473169 15.874186 5
 4.835890 8.349513 13.185441 5
 6.023907 9.579772 15.603678 5
 5.876548 9.535896 15.412431 5
 6.006768 9.473273 15.480042 5
 3.850071 9.739372 13.589453 5
 5.033668 8.974723 14.008393 5
 4.887443 9.018431 13.905889 5
 5.160952 8.874516 14.035474 5
 5.117629 9.121278 14.238909 5
 5.054770 9.226753 14.281529 5
 4.976250 9.108380 14.084641 5
 4.595613 8.187726 12.783391 5
 4.511151 8.049745 12.560946 5
 4.657690 8.056572 12.714312 5
 6.406180 9.252308 15.658481 5
 4.992723 9.561673 14.554398 5
 4.955625 9.444233 14.399862 5
 5.100862 9.495233 14.596105 5
 5.104562 9.353175 14.457742 5
 5.326624 8.394687 13.721325 5
 5.455002 8.323562 13.778582 5
 5.448535 8.493784 13.942337 5
 5.942748 9.666035 15.608788 5
 5.281036 8.087737 13.368801 5
 5.183760 7.973964 13.157761 5
 5.325183 7.953028 13.278241 5
 5.229473 7.854873 13.084384 5
 6.673309 9.597209 16.270506 5
 6.560266 9.486866 16.047131 5
 5.786549 8.751596 14.538147 5
 5.831116 8.859455 14.690569 5
 5.704263 8.908795 14.613062 5
 5.667077 8.750273 14.417352 5
 6.344052 9.144920 15.488966 5
 6.398485 9.020336 15.418810 5
 6.805555 10.000000 16.805555 5
 6.669086 9.877488 16.546572 5
 6.780723 9.831198 16.611927 5
 4.928938 8.408052 13.337016 5
 5.339095 9.054036 14.393137 5
 5.474401 8.974982 14.449387 5
 5.467297 9.110331 14.577631 5
 6.551444 8.971073 15.522511 5
 4.752560 9.091887 13.844465 5
 4.753585 9.217464 13.971054 5
 4.921981 8.624599 13.546599 5
 5.316194 8.940395 14.256590 5
 5.494482 9.751087 15.245567 5
 5.389594 9.632672 15.022269 5
 5.532137 9.655560 15.187697 5
 5.317335 8.524278 13.841632 5
 5.214862 8.622054 13.836927 5
 5.107150 8.727748 13.834907 5
 5.044873 8.595980 13.640875 5
 5.840853 8.968827 14.809671 5
 6.024354 9.014854 15.039202 5
 5.875474 9.096663 14.972135 5
 4.659850 8.878281 13.538154 5
 4.771643 8.955138 13.726795 5
 5.248151 9.549439 14.797589 5
 5.089444 9.635806 14.725251 5
 5.225109 9.663507 14.888623 5
 4.864355 9.365487 14.229852 5
 4.799243 9.464533 14.263787 5
 4.549316 8.906294 13.455627 5
 5.951161 8.879012 14.830175 5
 4.448827 8.208036 12.656919 5
 6.555438 9.633027 16.188490 5
 4.694573 8.537153 13.231763 5
 5.777870 9.287535 15.065410 5
 5.914904 9.298908 15.213805 5
 5.802255 9.410053 15.212306 5
 5.912392 9.415397 15.327785 5
 4.888464 9.546127 14.434601 5
 4.344721 9.139347 13.484093 5
 4.397971 9.039911 13.437905 5
 5.397138 9.790697 15.187833 5
 5.534955 8.410294 13.945256 5
 5.040743 7.991185 13.031972 5
 4.948983 7.864202 12.813229 5
 5.087064 7.877637 12.964740 5
 7.135184 9.459273 16.594481 5
 7.014851 9.497261 16.512125 5
 7.063276 9.350357 16.413635 5
 3.862267 9.882134 13.744404 5
 6.952539 9.398787 16.351334 5
 4.557470 9.579404 14.136882 5
 4.409207 9.553614 13.962838 5
 4.558940 9.462377 14.021331 5
 4.451516 9.419845 13.871373 5
 5.914955 8.744390 14.659351 5
 4.635546 8.455350 13.090939 5
 4.588533 8.601883 13.190447 5
 4.478090 8.516355 12.994486 5
 4.973298 8.502631 13.475958 5
 4.180976 9.319201 13.500200 5
 4.115375 9.448175 13.563572 5
 4.003203 9.356768 13.359990 5
 7.777778 10.000000 17.777779 5
 7.638889 10.000000 17.638889 5
 7.724136 9.844862 17.568993 5
 4.743224 8.436479 13.179746 5
 6.186282 9.712640 15.898920 5
 6.141191 9.618241 15.759431 5
 6.285971 9.581976 15.867949 5
 7.569445 9.905751 17.475201 5
 4.911258 9.657254 14.568516 5
 4.263486 9.510584 13.774094 5
 4.325822 9.399570 13.725413 5
 3.910711 9.593875 13.504607 5
 7.380812 9.350439 16.731253 5
 7.468836 9.518209 16.987053 5
 7.334869 9.455361 16.790237 5
 7.493327 9.372643 16.865969 5
 7.158516 9.235254 16.393778 5
 7.226109 9.365529 16.591646 5
 4.938622 9.210174 14.148807 5
 4.341845 9.257669 13.599531 5
 6.811966 9.642995 16.454967 5
 5.956855 8.621002 14.577857 5
 4.079746 9.898533 13.978282 5
 7.410687 9.658910 17.069597 5
 7.521936 9.691813 17.213755 5
 4.971705 8.284924 13.256660 5
 4.976001 8.131276 13.107319 5
 5.019590 9.767318 14.786910 5
 5.617157 9.754135 15.371291 5
 5.728519 9.697784 15.426300 5
 5.782080 9.823995 15.606080 5
 6.666667 10.000000 16.666668 5
 5.658605 9.881393 15.539998 5
 3.857107 9.455001 13.312137 5
 3.754241 9.597116 13.351386 5
 3.990979 9.487936 13.478932 5
 4.346334 9.701820 14.048168 5
 4.437894 9.836925 14.274823 5
 4.289364 9.844871 14.134240 5
 5.361442 9.235927 14.597374 5
 5.476700 9.225661 14.702366 5
 5.444541 9.386308 14.830852 5
 7.460124 9.079474 16.539589 5
 7.479390 9.224616 16.704010 5
 7.369483 9.136706 16.506189 5
 4.226120 9.176881 13.403018 5
 6.155670 9.054038 15.209702 5
 6.189645 8.950685 15.140324 5
 6.099037 8.875254 14.974288 5
 4.579339 9.775171 14.354518 5
 4.491577 9.682027 14.173611 5
 4.655893 9.654855 14.310760 5
 4.447915 8.350212 12.798177 5
 4.310953 8.315970 12.626983 5
 6.153409 9.522855 15.676263 5
 4.443876 8.669430 13.113337 5
 5.601561 9.025578 14.627140 5
 5.607803 9.159656 14.767457 5
 5.072101 8.187603 13.259746 5
 6.778850 9.177019 15.955872 5
 4.581558 8.759679 13.341254 5
 5.287799 9.750173 15.037971 5
 6.265505 9.053463 15.318967 5
 6.464293 9.583187 16.047489 5
 5.305802 8.228199 13.534022 5
 5.513700 9.525151 15.038845 5
 5.555555 10.000000 15.555555 5
 5.416667 10.000000 15.416667 5
 5.510119 9.866122 15.376241 5
 5.194096 9.013437 14.207541 5
 5.676312 9.257267 14.933578 5
 5.751612 9.154735 14.906344 5
 4.352052 8.542392 12.894479 5
 5.102235 8.506653 13.608901 5
 7.361111 10.000000 17.361111 5
 7.296700 9.920088 17.216780 5
 7.432374 9.886025 17.318405 5
 5.407197 9.504215 14.911416 5
 5.720436 8.623577 14.344021 5
 5.606541 8.533944 14.140491 5
 5.151985 9.824062 14.976051 5
 5.070296 9.897686 14.967983 5
 5.425395 8.066589 13.492002 5
 5.626382 8.655936 14.282324 5
 7.574777 9.791536 17.366312 5
 7.408272 9.765462 17.173725 5
 5.311906 9.455657 14.767567 5
 5.147015 9.724869 14.871884 5
 6.250000 10.000000 16.250000 5
 6.111111 10.000000 16.111111 5
 6.181142 9.858657 16.039808 5
 4.314149 8.687351 13.001534 5
 4.257246 8.596165 12.853448 5
 7.500000 10.000000 17.500000 5
 5.180929 8.201887 13.382853 5
 6.388434 9.671264 16.059698 5
 4.472039 8.800057 13.272122 5
 5.230484 9.305805 14.536291 5
 5.261732 9.161214 14.422947 5
 5.323923 9.351140 14.675069 5
 5.401987 8.855069 14.257059 5
 7.108465 9.000947 16.109425 5
 7.252378 8.899221 16.151669 5
 7.220484 9.031564 16.252058 5
 6.302894 9.706076 16.008970 5
 4.449424 9.311433 13.760874 5
 5.284117 8.831192 14.115314 5
 6.882627 9.886447 16.769072 5
 5.860522 9.198224 15.058739 5
 5.447165 8.199057 13.646236 5
 4.900376 8.008267 12.908689 5
 7.004992 9.053137 16.058138 5
 7.022418 9.191932 16.214361 5
 6.899935 9.120657 16.020594 5
 4.998565 8.691900 13.690479 5
 5.982752 9.153278 15.136030 5
 5.972222 10.000000 15.972221 5
 5.898700 9.885500 15.784202 5
 6.060734 9.888889 15.949630 5
 7.271050 9.722310 16.993357 5
 7.253049 9.606718 16.859758 5
 7.083333 10.000000 17.083332 5
 7.079720 9.858798 16.938520 5
 7.202360 9.863933 17.066288 5
 5.153835 9.233645 14.387489 5
 7.656583 9.697560 17.354151 5
 7.222222 10.000000 17.222221 5
 6.916779 9.288080 16.204857 5
 7.154130 9.733686 16.887812 5
 7.124003 9.594628 16.718626 5
 6.297576 8.948071 15.245639 5
 6.219924 8.820246 15.040169 5
 5.215716 9.421371 14.637090 5
 5.389453 9.894346 15.283798 5
 4.783399 8.029253 12.812697 5
 5.836073 9.651634 15.487707 5
 5.519876 8.638554 14.158435 5
 5.384756 8.631455 14.016221 5
 5.327545 8.743096 14.070644 5
 7.376606 9.243668 16.620279 5
 4.859877 9.151567 14.011453 5
 7.355088 9.564360 16.919443 5
 5.720968 9.035899 14.756859 5
 6.099948 9.147806 15.247741 5
 5.375149 9.146306 14.521460 5
 4.368837 8.434118 12.803002 5
 6.624095 9.338402 15.962494 5
 6.244683 9.457056 15.701738 5
 6.100932 9.407632 15.508564 5
 4.531622 8.420821 12.952481 5
 6.199639 9.344516 15.544154 5
 4.562901 8.315740 12.878687 5
 7.041790 9.729144 16.770926 5
 5.480383 8.766965 14.247345 5
 5.663185 8.228879 13.892083 5
 5.791213 8.162083 13.953306 5
 5.774346 8.272356 14.046712 5
 5.567767 9.303588 14.871361 5
 7.316314 9.819341 17.135647 5
 4.852577 8.123547 12.976169 5
 6.054611 9.284513 15.339128 5
 6.336432 8.839258 15.175694 5
 7.004952 9.625604 16.630556 5
 4.444445 10.000000 14.444445 5
 4.543991 9.895347 14.439347 5
 5.694445 10.000000 15.694445 5
 5.215215 8.747265 13.962493 5
 4.250460 8.816812 13.067307 5
 4.368865 8.786231 13.155127 5
 4.325902 8.925805 13.251725 5
 5.870399 9.754210 15.624604 5
 5.899400 8.271502 14.170914 5
 5.993177 9.780726 15.773903 5
 6.008992 8.708517 14.717510 5
 6.067565 8.626242 14.693810 5
 6.106747 8.749391 14.856137 5
 6.201482 8.650692 14.852166 5
 4.255176 8.445662 12.700888 5
 4.698592 8.771091 13.469706 5
 5.576140 8.729132 14.305277 5
 4.213342 9.427270 13.640626 5
 5.713191 8.365657 14.078864 5
 6.441116 8.889874 15.330982 5
 4.305555 10.000000 14.305555 5
 4.186213 9.892676 14.078889 5
 6.723753 9.719796 16.443556 5
 6.604926 9.764725 16.369650 5
 5.590402 8.831272 14.421679 5
 7.130146 9.110865 16.241016 5
 7.266002 9.152352 16.418344 5
 5.640282 9.603033 15.243314 5
 5.124939 8.088936 13.213910 5
 5.000000 10.000000 15.000000 5
 4.861111 10.000000 14.861111 5
 4.913227 9.878787 14.792018 5
 4.722222 10.000000 14.722221 5
 4.583333 10.000000 14.583333 5
 4.672441 9.880175 14.552621 5
 4.068501 9.585863 13.654379 5
 5.958299 8.386499 14.344807 5
 6.953569 9.795262 16.748833 5
 6.845856 9.760732 16.606579 5
 4.565258 9.317526 13.882798 5
 6.164565 9.233966 15.398523 5
 7.346021 9.026924 16.372936 5
 4.368891 9.918979 14.287868 5
 5.284987 9.862564 15.147551 5
 5.138889 10.000000 15.138889 5
 5.198089 9.915951 15.114044 5
 4.166667 10.000000 14.166667 5
 6.303110 9.885636 16.188742 5
 6.498373 9.849589 16.347961 5
 6.485882 9.713652 16.199532 5
 6.379928 9.784677 16.164608 5
 6.527778 10.000000 16.527779 5
 6.405153 9.898450 16.303593 5
 4.433757 8.899753 13.333530 5
 6.388889 10.000000 16.388889 5
 4.671092 9.415395 14.086498 5
 4.757458 9.336107 14.093575 5
 5.997921 9.375944 15.373858 5
 6.264444 9.787251 16.051691 5
 6.019511 8.795521 14.815036 5
 6.096767 9.787628 15.884398 5
 4.249196 9.746644 13.995849 5
 4.290026 9.051939 13.341990 5
 7.276907 9.262949 16.539860 5
 5.277778 10.000000 15.277779 5
 4.670959 9.291055 13.962025 5
 4.174572 9.047209 13.221811 5
 7.236239 9.498988 16.735231 5
 5.544349 8.245235 13.789599 5
 5.554943 8.137086 13.692046 5
 4.679265 9.535705 14.214985 5
 6.578643 9.915918 16.494558 5
 4.027778 10.000000 14.027779 5
 6.910433 9.478945 16.389366 5
 5.833333 10.000000 15.833333 5
 4.209990 8.931535 13.141552 5
 4.783470 9.602942 14.386422 5
 4.796529 9.717548 14.514082 5
 4.693612 9.760940 14.454556 5
 6.276409 9.249656 15.526057 5
 4.306518 9.603655 13.910187 5
 4.163507 9.540902 13.704425 5
 4.207045 9.648600 13.855656 5
 6.944445 10.000000 16.944445 5
 5.565848 9.414798 14.980645 5
 4.813176 7.911351 12.724568 5
 4.791667 9.921261 14.712930 5
 4.791667 9.816274 14.607944 5
 6.987856 9.906951 16.894802 5
 5.591185 8.333581 13.924781 5
 6.907895 9.580243 16.488138 5
 5.363317 8.144968 13.508312 5
 5.763889 9.924757 15.688644 5
 5.727032 9.496281 15.223310 5
 5.626346 9.486788 15.113131 5
 5.761691 9.596926 15.358611 5
 5.676509 9.380824 15.057332 5
 4.961455 9.310482 14.271935 5
 6.056384 9.693966 15.750354 5
 4.886454 9.767436 14.653893 5
 4.698055 7.935896 12.634002 5
 5.581451 8.925284 14.506737 5
 5.636427 8.427858 14.064294 5
 3.888889 10.000000 13.888889 5
 3.962588 9.923513 13.886107 5
 4.212398 8.713079 12.925513 5
 6.217739 9.146187 15.363913 5
 4.850798 9.263067 14.113874 5
 5.508369 8.877736 14.386108 5
 6.922500 9.688689 16.611197 5
 1 2 3 
 3 2 4 
 5 6 7 
 7 6 8 
 9 10 11 
 12 10 9 
 13 14 15 
 16 17 18 
 19 20 21 
 14 22 15 
 21 20 23 
 24 17 16 
 25 26 27 
 28 29 30 
 31 32 33 
 34 33 32 
 35 36 37 
 38 28 30 
 39 40 41 
 42 19 21 
 7 43 44 
 8 43 7 
 45 43 8 
 46 47 48 
 49 50 51 
 35 52 36 
 53 54 55 
 56 55 54 
 57 58 59 
 39 60 40 
 61 62 63 
 64 63 62 
 57 2 1 
 14 65 66 
 67 68 69 
 70 67 69 
 71 72 24 
 73 74 75 
 38 76 26 
 77 78 79 
 80 17 24 
 10 81 82 
 12 81 10 
 26 83 27 
 77 84 78 
 85 86 87 
 57 88 2 
 89 90 91 
 92 93 94 
 95 96 12 
 55 97 98 
 97 99 98 
 100 54 101 
 95 12 102 
 92 103 93 
 49 104 50 
 65 105 66 
 71 24 52 
 25 106 26 
 45 8 90 
 107 108 109 
 110 109 108 
 101 54 111 
 112 113 11 
 114 86 85 
 115 59 58 
 116 117 118 
 119 120 121 
 42 21 122 
 110 41 40 
 120 123 121 
 124 125 126 
 127 126 125 
 113 9 11 
 67 33 128 
 129 130 131 
 26 76 132 
 133 134 135 
 89 2 88 
 136 137 138 
 38 26 139 
 140 141 142 
 137 143 138 
 53 98 144 
 145 146 125 
 42 147 19 
 127 125 146 
 148 149 150 
 151 149 148 
 152 153 121 
 119 121 153 
 154 48 47 
 133 155 146 
 14 13 65 
 156 65 13 
 33 157 128 
 49 51 29 
 23 158 21 
 159 149 160 
 161 30 162 
 163 144 98 
 164 165 166 
 73 167 74 
 164 166 168 
 169 147 170 
 57 59 88 
 169 135 171 
 172 173 174 
 175 176 177 
 42 170 147 
 46 48 43 
 178 179 180 
 133 181 155 
 182 93 183 
 184 183 93 
 185 186 187 
 124 187 186 
 80 24 72 
 188 189 104 
 142 141 190 
 191 131 130 
 192 193 79 
 194 161 162 
 18 17 195 
 95 102 196 
 53 55 98 
 114 197 86 
 99 86 197 
 71 198 72 
 199 142 37 
 57 1 200 
 201 87 86 
 202 203 204 
 45 84 205 
 172 186 173 
 185 173 186 
 107 206 207 
 191 208 131 
 89 91 209 
 210 211 212 
 86 97 213 
 214 215 31 
 163 216 217 
 61 63 218 
 219 215 214 
 220 212 221 
 220 221 160 
 222 213 97 
 163 223 216 
 220 138 143 
 224 225 226 
 191 227 208 
 228 208 227 
 57 200 58 
 229 210 212 
 1 3 230 
 3 194 230 
 199 231 142 
 196 102 232 
 175 233 234 
 99 97 86 
 175 177 235 
 236 78 84 
 11 155 112 
 237 238 239 
 140 142 240 
 129 106 130 
 11 241 155 
 45 242 84 
 191 130 196 
 73 75 243 
 107 207 244 
 245 58 200 
 116 246 117 
 247 248 249 
 6 250 8 
 251 108 244 
 252 253 254 
 159 255 256 
 257 258 259 
 56 260 233 
 251 94 93 
 24 16 52 
 220 261 138 
 262 257 259 
 6 27 83 
 263 22 195 
 264 265 256 
 201 86 213 
 266 183 267 
 56 268 55 
 263 195 249 
 264 255 259 
 203 269 204 
 31 33 214 
 202 204 168 
 51 270 29 
 271 40 60 
 272 215 219 
 89 273 274 
 89 88 273 
 275 180 179 
 44 48 276 
 67 214 33 
 159 256 277 
 207 193 278 
 192 278 193 
 44 276 81 
 184 267 183 
 182 279 93 
 77 79 280 
 188 131 281 
 14 66 282 
 36 282 66 
 142 283 37 
 184 93 103 
 12 9 102 
 284 283 190 
 92 94 278 
 188 285 131 
 129 131 285 
 284 286 283 
 129 287 28 
 264 288 265 
 236 274 289 
 290 291 292 
 207 278 94 
 293 177 176 
 95 5 96 
 294 212 211 
 89 209 2 
 295 29 270 
 251 93 279 
 294 259 255 
 251 296 108 
 266 267 297 
 298 265 288 
 56 47 260 
 299 173 300 
 301 202 168 
 264 256 255 
 34 157 33 
 56 233 268 
 45 90 302 
 236 242 274 
 35 37 283 
 303 304 305 
 274 273 289 
 166 165 306 
 307 32 292 
 67 70 214 
 272 289 273 
 308 254 253 
 36 66 37 
 309 310 311 
 312 311 310 
 251 244 94 
 6 5 27 
 313 208 228 
 95 314 5 
 192 79 78 
 12 96 81 
 79 193 176 
 309 128 157 
 8 250 90 
 77 234 205 
 46 205 234 
 272 219 315 
 271 306 165 
 133 146 316 
 31 317 32 
 169 171 147 
 219 214 70 
 266 318 72 
 319 320 174 
 75 74 321 
 322 321 74 
 263 248 121 
 152 121 248 
 323 70 69 
 247 324 248 
 239 325 324 
 152 324 325 
 184 311 267 
 312 267 311 
 266 72 198 
 201 326 87 
 116 327 162 
 263 249 248 
 328 329 330 
 251 279 296 
 331 332 333 
 199 66 105 
 25 196 130 
 185 300 173 
 334 19 147 
 322 105 65 
 34 32 335 
 150 153 148 
 49 29 28 
 216 223 197 
 336 243 337 
 295 162 30 
 159 221 255 
 89 274 302 
 233 260 234 
 53 111 54 
 46 43 205 
 45 205 43 
 11 10 338 
 339 286 296 
 284 296 286 
 239 238 340 
 239 340 325 
 334 147 171 
 299 341 173 
 216 197 342 
 116 162 246 
 322 65 321 
 156 321 65 
 175 235 233 
 25 314 196 
 95 196 314 
 343 217 344 
 36 52 16 
 91 90 250 
 319 345 320 
 224 226 346 
 322 347 348 
 349 348 347 
 350 351 347 
 4 2 209 
 207 206 193 
 129 285 287 
 18 195 22 
 75 337 243 
 14 282 22 
 18 22 282 
 352 305 304 
 45 302 242 
 44 81 96 
 307 335 32 
 32 317 292 
 264 259 258 
 172 125 186 
 124 186 125 
 350 353 351 
 4 209 132 
 91 132 209 
 266 297 318 
 354 355 101 
 100 101 355 
 110 108 356 
 225 254 226 
 354 126 338 
 127 338 126 
 129 28 139 
 38 139 28 
 140 357 226 
 343 328 217 
 163 98 223 
 39 41 190 
 284 190 41 
 184 103 358 
 140 226 359 
 172 174 360 
 332 299 300 
 191 196 232 
 293 176 193 
 155 181 112 
 361 112 181 
 153 362 148 
 164 168 204 
 107 244 108 
 334 171 134 
 135 134 171 
 92 68 103 
 263 15 22 
 155 241 146 
 127 146 241 
 164 87 326 
 203 363 269 
 363 342 269 
 354 338 364 
 295 30 29 
 361 181 365 
 119 153 366 
 150 366 153 
 290 367 368 
 11 338 241 
 352 9 113 
 89 302 90 
 124 126 369 
 163 217 330 
 322 370 347 
 49 28 287 
 353 224 346 
 49 287 104 
 188 104 287 
 216 344 217 
 151 148 179 
 275 179 148 
 325 340 180 
 345 371 158 
 64 62 118 
 116 118 62 
 372 123 120 
 80 72 318 
 61 327 62 
 159 277 149 
 152 362 153 
 252 373 253 
 225 252 254 
 44 96 7 
 25 130 106 
 194 162 327 
 92 69 68 
 1 230 200 
 303 305 374 
 328 330 217 
 61 230 327 
 131 208 281 
 44 43 48 
 164 326 165 
 375 376 187 
 91 250 83 
 187 376 377 
 245 218 368 
 354 369 126 
 152 248 324 
 339 296 279 
 35 378 52 
 332 300 333 
 145 125 379 
 127 241 338 
 272 273 59 
 352 102 9 
 294 255 221 
 23 174 320 
 173 341 174 
 319 174 341 
 185 333 300 
 222 268 235 
 233 235 268 
 322 74 370 
 334 380 381 
 142 231 240 
 322 348 105 
 23 360 174 
 334 381 20 
 114 204 269 
 5 7 96 
 61 200 230 
 222 235 177 
 88 59 273 
 382 73 243 
 229 212 143 
 220 143 212 
 172 379 125 
 295 246 162 
 293 383 177 
 201 177 383 
 99 197 223 
 372 13 15 
 295 270 246 
 384 246 270 
 329 385 330 
 386 330 385 
 222 177 213 
 201 213 177 
 77 205 84 
 386 385 333 
 331 333 385 
 257 387 258 
 150 149 277 
 194 3 161 
 256 265 366 
 119 366 265 
 38 30 161 
 145 381 380 
 91 83 132 
 115 58 388 
 352 232 102 
 23 20 381 
 35 286 378 
 4 76 161 
 172 381 379 
 145 379 381 
 23 381 360 
 172 360 381 
 257 382 387 
 58 367 388 
 152 325 362 
 308 306 60 
 372 389 13 
 156 13 389 
 290 292 317 
 272 59 215 
 274 242 302 
 4 161 3 
 61 218 390 
 264 258 288 
 336 288 258 
 373 391 253 
 166 253 391 
 38 161 76 
 92 278 69 
 338 10 364 
 349 347 351 
 392 326 393 
 201 393 326 
 392 394 326 
 294 221 212 
 124 369 187 
 220 160 261 
 82 81 276 
 199 37 66 
 352 113 305 
 384 117 246 
 350 347 370 
 272 315 289 
 298 389 120 
 354 364 355 
 263 121 123 
 137 229 143 
 6 83 250 
 345 158 320 
 107 109 395 
 392 395 109 
 386 333 377 
 185 377 333 
 334 134 380 
 133 316 134 
 154 47 396 
 56 396 47 
 71 52 378 
 115 215 59 
 293 193 206 
 308 60 397 
 61 390 200 
 245 200 390 
 34 310 157 
 256 366 277 
 150 277 366 
 188 281 189 
 313 189 281 
 386 398 330 
 163 330 398 
 164 204 85 
 245 368 367 
 308 253 306 
 166 306 253 
 142 190 283 
 375 369 101 
 336 258 387 
 372 120 389 
 353 346 351 
 175 280 176 
 79 176 280 
 307 292 291 
 384 270 399 
 51 399 270 
 114 85 204 
 114 342 197 
 18 282 16 
 36 16 282 
 167 350 370 
 339 378 286 
 192 69 278 
 354 101 369 
 275 148 362 
 299 319 341 
 363 343 344 
 4 132 76 
 39 190 141 
 363 344 342 
 303 227 304 
 361 374 305 
 114 269 342 
 323 69 400 
 192 400 69 
 154 276 48 
 115 401 215 
 31 215 401 
 375 187 369 
 99 223 98 
 207 94 244 
 159 160 221 
 210 262 211 
 349 231 348 
 275 325 180 
 329 331 385 
 191 232 304 
 373 301 391 
 103 128 358 
 309 358 128 
 290 317 388 
 216 342 344 
 371 402 403 
 26 106 139 
 129 139 106 
 35 283 286 
 303 404 227 
 339 405 378 
 5 314 27 
 100 355 406 
 82 406 355 
 116 62 327 
 236 289 407 
 323 407 289 
 336 408 288 
 298 288 408 
 275 362 325 
 236 84 242 
 392 109 40 
 110 40 109 
 293 206 395 
 361 365 374 
 140 240 357 
 192 78 400 
 361 113 112 
 222 97 268 
 55 268 97 
 107 395 206 
 31 401 317 
 164 85 87 
 375 144 376 
 334 20 19 
 185 187 377 
 154 396 406 
 100 406 396 
 336 337 408 
 392 393 395 
 21 158 403 
 371 403 158 
 26 132 83 
 375 101 111 
 301 168 391 
 166 391 168 
 309 157 310 
 199 105 348 
 199 348 231 
 71 378 405 
 145 380 316 
 134 316 380 
 293 395 383 
 326 394 165 
 349 351 346 
 100 396 54 
 56 54 396 
 271 60 306 
 245 390 218 
 323 289 315 
 298 120 265 
 119 265 120 
 349 240 231 
 194 327 230 
 236 407 78 
 182 183 198 
 266 198 183 
 188 287 285 
 163 398 144 
 349 346 357 
 313 281 208 
 184 358 311 
 23 320 158 
 145 316 146 
 239 324 237 
 178 180 340 
 375 111 144 
 167 370 74 
 349 357 240 
 46 234 260 
 271 165 394 
 53 144 111 
 140 359 397 
 82 276 406 
 226 357 346 
 309 311 358 
 336 387 243 
 262 259 211 
 46 260 47 
 77 280 234 
 175 234 280 
 82 364 10 
 25 27 314 
 294 211 259 
 103 68 128 
 67 128 68 
 247 237 324 
 245 367 58 
 298 408 389 
 382 243 387 
 39 397 60 
 144 398 376 
 271 394 40 
 75 321 337 
 156 337 321 
 191 304 227 
 21 403 122 
 402 122 403 
 226 254 359 
 308 359 254 
 108 296 356 
 284 356 296 
 308 397 359 
 82 355 364 
 263 123 15 
 352 304 232 
 392 40 394 
 182 405 279 
 395 393 383 
 78 407 400 
 361 305 113 
 372 15 123 
 386 377 376 
 154 406 276 
 182 198 405 
 339 279 405 
 39 141 397 
 156 389 408 
 140 397 141 
 71 405 198 
 228 227 404 
 317 401 388 
 219 70 315 
 323 315 70 
 110 356 41 
 284 41 356 
 156 408 337 
 290 388 367 
 201 383 393 
 323 400 407 
 386 376 398 
 115 388 401 
