TITLE      =  "2D FE Unstructured grid data" 
VARIABLES = "X", "Y", "U", "Dom" 
ZONE T="P1", F=FEPOINT, N= 408 E= 740  ET=TRIANGLE 
 2.778845 2.835404 5.614223 13
 2.722581 2.737618 5.460170 13
 2.902174 2.798072 5.700215 13
 2.799273 2.657090 5.456331 13
 4.814559 2.925099 7.739616 13
 4.701535 3.049531 7.751021 13
 4.676769 2.899004 7.575726 13
 3.777970 3.146677 6.924609 13
 3.652420 3.199282 6.851662 13
 3.661256 3.088212 6.749427 13
 3.743002 3.263467 7.006433 13
 3.813725 3.367210 7.180898 13
 3.647573 3.329685 6.977220 13
 2.583424 2.501775 5.085174 13
 2.701661 2.377132 5.078762 13
 2.695099 2.498819 5.193889 13
 2.746652 3.966335 6.712993 13
 2.786584 3.867271 6.653861 13
 2.905543 3.942552 6.848097 13
 3.035245 2.932065 5.967277 13
 2.925088 2.947470 5.872528 13
 4.845317 3.097768 7.943044 13
 2.571431 3.205691 5.777102 13
 2.535318 3.365102 5.900405 13
 2.434222 3.215888 5.650094 13
 3.458855 4.122495 7.581348 13
 3.606796 4.177765 7.784560 13
 3.483129 4.255417 7.738551 13
 3.598774 4.337320 7.936099 13
 4.499614 3.585040 8.084623 13
 4.366788 3.584994 7.951751 13
 4.446567 3.471965 7.918495 13
 2.741634 3.009562 5.751172 13
 2.625647 3.073562 5.699189 13
 2.667062 2.893990 5.561028 13
 3.445907 2.659313 6.105176 13
 3.518409 2.790100 6.308464 13
 3.368222 2.742452 6.110631 13
 4.334121 3.451462 7.785547 13
 2.972581 3.152143 6.124695 13
 3.051320 3.237915 6.289207 13
 2.891829 3.294670 6.186471 13
 2.913982 3.504823 6.418786 13
 3.083112 3.536109 6.619203 13
 2.906021 3.610849 6.516859 13
 2.991431 3.677116 6.668532 13
 3.083775 2.826700 5.910440 13
 2.770490 3.248269 6.018735 13
 2.759542 3.399570 6.159096 13
 3.663119 3.911580 7.574684 13
 3.826711 3.869400 7.696095 13
 3.770090 3.992099 7.762175 13
 2.529397 2.962426 5.491801 13
 3.368343 3.309905 6.678220 13
 3.518182 3.389859 6.908009 13
 3.370279 3.428877 6.799129 13
 3.451608 3.228068 6.679641 13
 2.857611 3.172049 6.029632 13
 2.556905 2.379816 4.936693 13
 3.948735 2.525645 6.474335 13
 3.998096 2.637498 6.635547 13
 3.843473 2.645442 6.488869 13
 3.842246 2.212200 6.054398 13
 3.712051 2.282257 5.994265 13
 3.704172 2.146105 5.850230 13
 4.473174 3.256110 7.729243 13
 4.567456 3.148981 7.716396 13
 4.605954 3.329224 7.935136 13
 4.706223 3.210999 7.917176 13
 3.683997 3.444801 7.128765 13
 3.390509 2.852428 6.242893 13
 3.758397 3.758531 7.516908 13
 3.084625 1.710023 4.794614 13
 3.214273 1.796005 5.010238 13
 3.044488 1.817739 4.862189 13
 3.938292 2.741144 6.679391 13
 2.641909 2.265342 4.907218 13
 3.833107 2.492996 6.326060 13
 4.062547 2.751495 6.813996 13
 3.486349 2.979638 6.465949 13
 3.405792 3.076089 6.481845 13
 3.373044 2.967898 6.340906 13
 3.287072 3.032096 6.319135 13
 2.868498 3.815696 6.684192 13
 3.754267 2.567093 6.321313 13
 4.592384 2.319388 6.911723 13
 4.691078 2.196561 6.887589 13
 4.696296 2.345913 7.042159 13
 4.580345 2.206484 6.786782 13
 3.469650 1.397828 4.867448 13
 3.586089 1.443134 5.029191 13
 3.520157 1.563006 5.083126 13
 4.462722 2.564050 7.026723 13
 4.526483 2.659689 7.186125 13
 4.347877 2.679267 7.027092 13
 4.475300 2.761858 7.237108 13
 3.635818 1.537494 5.173276 13
 3.698988 1.429815 5.128772 13
 3.747811 1.581453 5.329228 13
 3.408179 1.538060 4.946204 13
 3.560399 3.252693 6.813054 13
 3.544816 3.119268 6.664047 13
 5.007074 3.044911 8.051939 13
 4.968703 3.179825 8.148486 13
 2.414804 2.274356 4.689132 13
 2.314073 2.205104 4.519153 13
 2.467033 2.125870 4.592873 13
 4.038846 3.000278 7.039083 13
 4.123266 2.867643 6.990860 13
 4.188133 2.985779 7.173869 13
 3.739409 2.992201 6.731566 13
 4.312762 2.854862 7.167579 13
 4.226376 2.765024 6.991352 13
 4.375290 2.773214 7.148451 13
 4.203020 2.518538 6.721509 13
 4.284287 2.418287 6.702524 13
 4.327531 2.549852 6.877334 13
 3.698022 2.449470 6.147445 13
 3.621327 2.565028 6.186310 13
 3.549135 2.892482 6.441576 13
 3.672231 4.470662 8.142904 13
 3.522887 4.489528 8.012431 13
 3.686920 3.654907 7.341799 13
 3.811975 3.609040 7.420987 13
 3.898018 3.736639 7.634630 13
 3.158106 4.022573 7.180681 13
 3.266143 3.958967 7.225106 13
 3.291701 4.098896 7.390598 13
 4.173781 2.409400 6.583132 13
 4.576276 2.986893 7.563121 13
 2.658534 3.302438 5.960956 13
 3.038144 2.689117 5.727227 13
 2.920684 2.606197 5.526849 13
 3.070481 2.557373 5.627821 13
 3.534906 1.865153 5.400019 13
 3.688168 1.858842 5.546967 13
 3.667001 2.000325 5.667282 13
 3.669930 4.054786 7.724708 13
 3.553286 4.052860 7.606137 13
 3.298969 1.696324 4.995254 13
 3.402265 1.774331 5.176554 13
 3.335945 1.880307 5.216215 13
 3.126991 1.895258 5.022209 13
 4.905974 2.997900 7.903832 13
 2.990162 2.481465 5.471593 13
 3.026370 3.348619 6.374965 13
 4.029822 3.147438 7.177218 13
 3.900661 3.036299 6.936918 13
 3.218712 2.513155 5.731827 13
 3.355587 2.533348 5.888896 13
 3.277953 2.669799 5.947711 13
 4.044223 2.059058 6.103235 13
 4.154537 2.170261 6.324750 13
 3.992948 2.189189 6.182091 13
 4.079422 2.316966 6.396340 13
 3.114750 3.650118 6.764853 13
 3.760977 4.141288 7.902260 13
 3.865321 4.286638 8.151963 13
 3.730860 4.287013 8.017874 13
 4.101400 3.641224 7.742594 13
 4.029352 3.743405 7.772730 13
 3.953509 3.619774 7.573255 13
 2.609238 3.517793 6.127023 13
 2.523007 3.648184 6.171187 13
 2.486100 3.502004 5.988098 13
 3.510444 3.945162 7.455596 13
 4.667202 3.462225 8.129395 13
 4.769167 3.354741 8.123868 13
 3.204232 3.703293 6.907511 13
 3.226218 3.840267 7.066477 13
 3.088363 3.763826 6.852178 13
 3.193962 1.666452 4.860380 13
 3.890006 4.160296 8.050298 13
 4.640522 2.762918 7.403392 13
 3.793797 2.080250 5.874007 13
 3.834103 2.353311 6.187367 13
 3.951665 2.410690 6.362311 13
 4.133937 2.644026 6.777915 13
 4.077076 2.488711 6.565740 13
 3.514709 1.719278 5.233948 13
 3.433949 2.407681 5.841589 13
 3.570265 2.320343 5.890565 13
 3.555036 2.463536 6.018529 13
 3.196591 2.947488 6.144043 13
 4.562850 2.864707 7.427510 13
 2.529548 2.292510 4.822028 13
 3.405697 4.008058 7.413751 13
 3.134465 3.448697 6.583140 13
 3.206612 3.570246 6.776840 13
 3.806587 1.955921 5.762466 13
 3.923554 1.853063 5.776572 13
 3.944605 1.966865 5.911424 13
 2.818202 2.930408 5.748581 13
 2.616538 1.926217 4.542723 13
 2.715771 1.861416 4.577154 13
 2.709339 2.016364 4.725669 13
 2.803290 1.965028 4.768281 13
 3.615175 1.304414 4.919559 13
 3.761477 1.293916 5.055364 13
 3.158952 4.149160 7.308119 13
 3.355225 4.213881 7.569111 13
 4.365158 2.329854 6.694965 13
 4.413340 2.452439 6.865731 13
 4.840199 3.236122 8.076283 13
 3.622439 1.656989 5.279392 13
 3.719571 1.738871 5.458402 13
 4.095340 3.866561 7.961882 13
 4.196617 3.755592 7.952189 13
 3.590630 2.684185 6.274771 13
 3.518463 2.154564 5.672982 13
 3.409978 2.049430 5.459366 13
 3.524222 2.006972 5.531151 13
 3.485222 4.369045 7.854279 13
 4.551707 2.098530 6.650191 13
 3.233610 2.820423 6.053996 13
 3.609948 1.775104 5.385015 13
 4.370944 3.065555 7.436457 13
 4.445385 2.912859 7.358195 13
 4.486003 3.063442 7.549400 13
 3.313319 3.773828 7.087133 13
 4.476840 2.359542 6.836335 13
 4.469009 2.230560 6.699518 13
 3.105634 3.030736 6.136339 13
 3.334796 3.669358 7.004135 13
 3.130578 3.901307 7.031879 13
 3.253668 3.446566 6.700210 13
 3.004563 3.449836 6.454375 13
 2.875806 3.413953 6.289740 13
 3.905096 3.170962 7.076019 13
 2.586313 2.176878 4.763158 13
 2.653286 3.746954 6.400242 13
 2.556775 3.810593 6.367372 13
 4.030450 3.517035 7.547452 13
 3.717463 2.749289 6.466706 13
 3.705432 2.642207 6.347593 13
 2.772818 3.517823 6.290629 13
 3.845217 1.716956 5.562133 13
 4.267220 3.534466 7.801653 13
 3.796619 1.824731 5.621306 13
 4.299214 2.967769 7.266942 13
 3.904215 2.075878 5.980049 13
 3.259622 3.307623 6.567219 13
 3.308843 3.184427 6.493236 13
 3.145880 2.740204 5.886045 13
 4.359907 3.812293 8.172177 13
 4.230332 3.864177 8.094492 13
 2.964751 3.791596 6.756341 13
 3.944857 3.279537 7.224354 13
 4.080956 3.284735 7.365653 13
 3.979446 3.402946 7.382355 13
 4.129733 3.082790 7.212482 13
 3.033436 3.865733 6.899165 13
 3.839779 3.241144 7.080883 13
 3.436522 2.260481 5.696962 13
 4.167809 2.050471 6.218235 13
 4.266956 1.957000 6.223908 13
 4.274614 2.090020 6.364587 13
 4.329508 3.709597 8.039081 13
 4.153842 4.086401 8.240231 13
 4.099603 4.201324 8.300915 13
 3.998106 4.081865 8.079957 13
 3.977496 4.237344 8.214832 13
 3.959849 2.875437 6.835239 13
 3.478721 3.539876 7.018571 13
 3.139514 2.120711 5.260186 13
 3.296390 2.111793 5.408144 13
 3.199289 2.221692 5.420945 13
 4.555039 3.463412 8.018415 13
 4.540211 2.455931 6.996091 13
 4.611162 2.568521 7.179636 13
 4.675114 2.456182 7.131251 13
 4.762679 2.571348 7.333984 13
 3.384558 3.882700 7.267249 13
 2.798532 3.650784 6.449309 13
 3.631456 2.815304 6.446713 13
 2.850164 2.348053 5.198185 13
 2.930329 2.224630 5.154925 13
 2.984742 2.359340 5.344049 13
 3.485706 2.552667 6.038330 13
 4.224841 2.889864 7.114662 13
 4.312671 2.198335 6.510957 13
 4.106912 3.411744 7.518621 13
 3.601517 3.546279 7.147767 13
 3.393071 2.160466 5.553493 13
 3.827495 2.795848 6.623297 13
 3.295975 2.916973 6.212909 13
 3.223093 2.028296 5.251348 13
 2.826248 2.103138 4.929351 13
 2.779103 2.240019 5.019089 13
 2.861258 2.509342 5.370569 13
 2.772994 2.559116 5.332082 13
 3.837439 2.919240 6.756636 13
 3.739827 2.848954 6.588734 13
 3.784562 3.477700 7.262226 13
 3.659046 2.917655 6.576658 13
 2.677222 3.628210 6.305426 13
 3.565874 3.649191 7.215044 13
 3.447007 3.652848 7.099834 13
 4.225101 2.304498 6.529550 13
 4.409590 2.128758 6.538298 13
 3.152739 2.636584 5.789287 13
 4.683551 2.651215 7.334718 13
 3.519101 3.834054 7.353141 13
 3.940217 2.293453 6.233622 13
 4.499074 3.366894 7.865932 13
 4.292946 3.352727 7.645636 13
 4.196562 3.299059 7.495579 13
 4.326914 3.215930 7.542802 13
 3.088658 2.269545 5.358165 13
 3.226219 2.342403 5.568585 13
 3.102443 2.417721 5.520127 13
 2.614172 2.762391 5.376540 13
 2.540833 2.848108 5.388919 13
 2.463959 2.742223 5.206158 13
 4.363525 2.028943 6.392421 13
 3.180450 3.215299 6.395719 13
 3.155227 3.341714 6.496914 13
 3.204031 3.102371 6.306366 13
 3.623500 2.212112 5.835566 13
 4.185935 3.189254 7.375151 13
 3.319385 2.425381 5.744724 13
 3.622774 3.758597 7.381353 13
 4.310056 3.929770 8.239803 13
 2.667090 3.420545 6.087619 13
 3.432795 1.920420 5.353174 13
 4.979111 2.910539 7.889606 13
 2.547752 2.677674 5.225403 13
 3.905245 3.963724 7.868951 13
 3.856679 4.061239 7.917910 13
 2.601359 2.058598 4.659925 13
 4.244239 2.651063 6.895254 13
 3.698494 4.373678 8.072176 13
 4.232365 3.643092 7.875431 13
 3.892028 3.497513 7.389506 13
 2.765425 3.758421 6.523845 13
 2.754933 3.122748 5.877656 13
 3.607256 2.092462 5.699673 13
 2.654012 2.621906 5.275892 13
 2.676207 3.190542 5.866728 13
 2.691714 2.142068 4.833750 13
 4.013083 3.953603 7.966670 13
 3.304002 2.226061 5.530022 13
 4.274329 4.054249 8.328564 13
 4.189739 3.956672 8.146390 13
 4.158294 3.530331 7.688594 13
 3.609040 2.999769 6.608768 13
 4.935095 3.324694 8.259746 13
 4.097208 3.997294 8.094491 13
 3.024067 2.154481 5.178511 13
 3.050842 3.962158 7.012999 13
 3.026547 4.078624 7.105177 13
 3.306975 1.590395 4.897337 13
 4.797622 2.415462 7.213040 13
 2.942861 2.108407 5.051230 13
 3.346754 2.327696 5.674407 13
 3.808077 4.401528 8.209612 13
 4.396381 3.339750 7.736094 13
 2.998208 3.041924 6.040101 13
 3.083927 3.128006 6.211905 13
 2.429618 2.873436 5.303031 13
 4.770158 3.460246 8.230366 13
 2.907280 2.430012 5.337261 13
 4.444899 3.150003 7.594861 13
 2.910770 2.004319 4.915051 13
 3.714086 3.543481 7.257536 13
 2.508872 2.577290 5.086137 13
 2.410020 2.636260 5.046258 13
 2.447927 2.498250 4.946151 13
 2.909976 1.879384 4.789326 13
 2.822122 1.771414 4.593501 13
 2.953717 1.735142 4.688822 13
 2.675906 3.858227 6.534138 13
 4.256149 3.096748 7.352855 13
 4.767579 2.825063 7.592595 13
 3.952791 4.375410 8.328205 13
 3.351694 3.548263 6.899934 13
 3.422117 4.438757 7.860887 13
 2.499911 3.088206 5.588094 13
 4.453945 2.031813 6.485715 13
 3.965398 3.853828 7.819204 13
 4.223198 3.429797 7.652959 13
 2.872922 3.056670 5.929564 13
 3.123369 1.995431 5.118763 13
 3.022892 2.055470 5.078325 13
 2.404053 3.000973 5.405004 13
 4.208792 4.172944 8.381723 13
 4.802077 2.705404 7.507434 13
 3.021968 1.940591 4.962521 13
 2.812789 1.869311 4.682064 13
 3.279840 4.277283 7.557133 13
 3.371267 4.340522 7.711797 13
 4.067450 4.328677 8.396128 13
 3.416794 3.773523 7.190303 13
 3.231018 1.924711 5.155690 13
 4.189581 4.291617 8.481189 13
 3.516917 3.732760 7.249658 13
 3.320478 1.980983 5.301422 13
 4.439803 3.695257 8.135031 13
 4.410639 1.931589 6.342180 13
 3.406164 1.651777 5.057902 13
 2.792107 2.450197 5.242273 13
 2.883663 3.715283 6.598940 13
 2.442154 2.377958 4.820086 13
 2.321094 2.322698 4.643767 13
 4.608068 3.572247 8.180282 13
 4.562174 3.680274 8.242415 13
 3.252874 4.200253 7.453135 13
 4.710295 3.562259 8.272516 13
 1 2 3 
 2 4 3 
 5 6 7 
 8 9 10 
 11 12 13 
 14 15 16 
 17 18 19 
 20 21 3 
 5 22 6 
 23 24 25 
 26 27 28 
 29 28 27 
 30 31 32 
 33 34 35 
 36 37 38 
 32 31 39 
 40 41 42 
 43 44 45 
 46 45 44 
 47 20 3 
 48 42 49 
 50 51 52 
 53 35 34 
 54 55 56 
 54 57 55 
 40 42 58 
 59 15 14 
 60 61 62 
 63 64 65 
 66 67 68 
 69 68 67 
 13 12 70 
 37 71 38 
 50 72 51 
 73 74 75 
 62 61 76 
 77 15 59 
 60 62 78 
 79 76 61 
 80 81 82 
 83 82 81 
 84 19 18 
 62 85 78 
 86 87 88 
 89 87 86 
 90 91 92 
 93 94 95 
 96 95 94 
 97 98 99 
 100 90 92 
 8 11 9 
 101 57 102 
 103 104 22 
 105 106 107 
 81 102 57 
 108 109 110 
 8 10 111 
 112 113 114 
 101 102 9 
 115 116 117 
 118 85 119 
 113 95 114 
 37 120 71 
 80 71 120 
 29 121 122 
 123 124 72 
 125 72 124 
 126 127 128 
 115 129 116 
 130 7 6 
 48 49 131 
 132 133 134 
 135 136 137 
 138 139 50 
 140 141 74 
 142 74 141 
 143 75 74 
 5 144 22 
 145 134 133 
 146 42 41 
 69 6 22 
 108 147 148 
 149 150 151 
 36 151 150 
 152 153 154 
 155 154 153 
 46 44 156 
 157 158 159 
 160 161 162 
 163 164 165 
 139 166 50 
 167 68 168 
 69 168 68 
 169 170 171 
 73 172 74 
 157 173 158 
 174 96 94 
 63 65 175 
 176 177 78 
 178 61 179 
 135 141 180 
 181 182 183 
 118 183 182 
 47 184 20 
 174 185 96 
 77 59 186 
 26 128 187 
 44 188 189 
 190 191 192 
 115 178 179 
 190 175 137 
 65 137 175 
 29 27 159 
 157 159 27 
 105 107 186 
 1 3 193 
 21 193 3 
 80 102 81 
 194 195 196 
 78 177 60 
 196 195 197 
 198 199 98 
 44 189 156 
 118 119 183 
 126 128 200 
 26 201 128 
 103 22 144 
 116 202 203 
 69 22 204 
 97 99 205 
 206 205 99 
 207 161 208 
 36 209 37 
 79 113 109 
 210 211 212 
 29 122 213 
 89 214 87 
 215 184 47 
 135 216 136 
 217 218 219 
 169 220 170 
 221 222 86 
 89 86 222 
 223 20 184 
 4 133 3 
 215 151 38 
 169 224 220 
 101 55 57 
 170 225 171 
 226 189 188 
 132 47 3 
 146 227 228 
 147 229 148 
 107 230 186 
 160 208 161 
 231 232 164 
 146 228 42 
 160 162 233 
 163 165 24 
 215 38 71 
 234 235 62 
 43 45 236 
 130 6 67 
 69 67 6 
 206 99 237 
 238 39 31 
 190 239 191 
 217 240 218 
 152 154 241 
 63 241 154 
 118 182 64 
 226 242 56 
 83 81 243 
 215 244 151 
 221 203 202 
 208 245 246 
 54 243 57 
 84 247 19 
 169 156 189 
 135 180 216 
 248 249 250 
 108 110 251 
 252 19 247 
 10 9 102 
 8 253 11 
 210 182 254 
 181 254 182 
 255 256 257 
 258 245 208 
 259 260 261 
 262 261 260 
 43 227 44 
 108 263 109 
 264 56 55 
 43 236 228 
 265 266 267 
 126 225 127 
 167 268 68 
 93 95 117 
 93 269 270 
 63 176 64 
 118 64 176 
 271 272 270 
 273 127 170 
 274 236 45 
 234 275 209 
 276 277 278 
 234 209 235 
 119 209 279 
 112 280 113 
 281 153 257 
 282 250 249 
 248 147 249 
 264 55 283 
 70 283 55 
 210 284 211 
 234 62 285 
 215 71 286 
 170 127 225 
 33 35 193 
 23 131 24 
 287 266 265 
 288 277 289 
 276 289 277 
 79 178 113 
 54 56 242 
 81 57 243 
 62 235 85 
 290 133 291 
 291 133 4 
 30 32 268 
 169 189 224 
 132 3 133 
 292 111 293 
 70 12 294 
 295 293 111 
 97 92 91 
 163 296 164 
 231 164 296 
 273 170 220 
 79 109 263 
 252 171 225 
 264 297 298 
 264 283 297 
 1 193 35 
 155 153 299 
 271 270 269 
 222 300 214 
 36 38 151 
 145 133 290 
 149 151 301 
 190 192 241 
 270 302 94 
 50 166 303 
 94 302 174 
 54 242 243 
 155 304 154 
 63 175 241 
 68 268 305 
 36 279 209 
 306 307 308 
 130 218 185 
 309 310 311 
 89 222 214 
 60 179 61 
 281 257 300 
 312 313 314 
 257 315 300 
 316 317 41 
 190 137 136 
 223 184 318 
 292 263 148 
 108 148 263 
 210 319 182 
 320 249 147 
 292 285 263 
 312 2 35 
 1 35 2 
 130 219 218 
 320 308 307 
 149 310 321 
 181 279 150 
 152 241 192 
 281 299 153 
 60 177 179 
 49 228 236 
 152 255 153 
 151 244 301 
 65 64 319 
 116 203 117 
 149 311 310 
 123 72 322 
 198 91 90 
 50 322 72 
 77 289 15 
 323 246 245 
 157 27 138 
 29 213 28 
 155 177 304 
 112 114 218 
 96 218 114 
 80 82 71 
 163 24 324 
 135 325 141 
 262 173 261 
 5 326 144 
 26 28 201 
 149 321 150 
 273 303 166 
 118 176 78 
 312 314 327 
 155 179 177 
 328 261 329 
 130 185 7 
 330 230 107 
 95 331 117 
 309 278 277 
 29 332 121 
 258 333 31 
 248 250 12 
 334 12 250 
 274 335 296 
 33 336 34 
 210 212 337 
 125 162 161 
 113 280 109 
 135 137 212 
 263 285 76 
 4 2 338 
 108 251 147 
 320 147 251 
 34 336 339 
 112 218 240 
 273 166 187 
 77 340 289 
 328 341 261 
 63 304 176 
 119 279 183 
 309 267 310 
 342 310 267 
 115 179 129 
 323 343 344 
 160 233 345 
 282 345 233 
 118 78 85 
 231 296 335 
 190 136 239 
 181 183 279 
 125 51 72 
 93 270 94 
 10 346 111 
 295 111 346 
 50 303 322 
 146 41 317 
 248 229 147 
 221 86 269 
 271 269 86 
 65 337 137 
 238 31 333 
 347 168 204 
 69 204 168 
 259 261 348 
 157 138 52 
 309 277 349 
 19 350 351 
 4 338 291 
 140 172 352 
 328 52 51 
 155 299 129 
 271 88 353 
 83 318 184 
 288 196 197 
 126 200 351 
 292 148 111 
 8 111 148 
 288 354 277 
 342 355 310 
 37 209 275 
 356 121 332 
 132 244 47 
 306 308 357 
 96 114 95 
 215 47 244 
 113 331 95 
 258 208 333 
 334 124 294 
 40 358 359 
 276 15 289 
 356 159 158 
 314 313 360 
 79 61 178 
 223 359 358 
 167 168 361 
 276 278 362 
 96 185 218 
 66 68 305 
 119 235 209 
 66 363 67 
 66 357 308 
 288 197 364 
 174 7 185 
 309 311 278 
 116 129 299 
 128 127 187 
 288 340 196 
 124 365 294 
 316 243 242 
 63 154 304 
 366 367 368 
 342 267 266 
 369 370 371 
 231 335 372 
 198 98 91 
 181 150 321 
 26 139 27 
 36 150 279 
 132 134 301 
 288 289 340 
 115 117 331 
 145 290 362 
 22 104 204 
 369 364 197 
 93 203 269 
 166 139 187 
 26 187 139 
 226 317 242 
 142 141 325 
 130 67 219 
 59 14 368 
 366 368 14 
 334 250 233 
 282 233 250 
 217 308 373 
 320 373 308 
 176 304 177 
 49 236 324 
 163 324 236 
 119 85 235 
 174 374 7 
 48 58 42 
 101 13 55 
 70 55 13 
 356 158 375 
 356 332 159 
 49 42 228 
 160 333 208 
 334 233 162 
 226 56 376 
 312 338 2 
 206 136 216 
 377 213 122 
 182 319 64 
 146 188 227 
 146 317 188 
 157 52 329 
 23 25 378 
 43 228 227 
 273 187 127 
 379 214 300 
 23 378 34 
 125 380 51 
 50 52 138 
 282 249 307 
 238 345 381 
 372 335 18 
 282 307 381 
 226 376 189 
 207 380 161 
 40 58 382 
 23 339 131 
 190 241 175 
 287 265 383 
 384 383 265 
 261 173 329 
 53 385 360 
 155 129 179 
 103 144 326 
 262 158 173 
 259 343 386 
 77 186 230 
 207 208 246 
 223 318 359 
 174 387 374 
 369 75 388 
 110 109 280 
 53 34 378 
 281 222 202 
 221 202 222 
 16 338 14 
 366 14 338 
 140 74 172 
 271 353 272 
 8 148 229 
 195 389 197 
 262 375 158 
 29 159 332 
 369 197 389 
 238 333 345 
 160 345 333 
 390 201 391 
 28 391 201 
 309 349 265 
 274 296 236 
 70 365 283 
 123 283 365 
 334 162 124 
 272 387 302 
 262 392 375 
 149 134 311 
 369 371 75 
 273 393 303 
 21 382 193 
 33 193 382 
 238 381 39 
 110 240 373 
 217 373 240 
 16 291 338 
 143 394 383 
 27 139 138 
 126 351 350 
 259 344 343 
 145 278 311 
 347 204 104 
 366 327 367 
 314 367 327 
 217 363 308 
 53 360 313 
 328 380 341 
 66 308 363 
 221 269 203 
 262 260 392 
 395 392 260 
 207 341 380 
 143 74 394 
 316 41 359 
 207 344 348 
 252 350 19 
 125 161 380 
 330 340 230 
 77 230 340 
 40 382 358 
 369 389 370 
 195 370 389 
 123 322 297 
 396 297 322 
 5 7 374 
 396 322 303 
 11 253 12 
 248 12 253 
 21 358 382 
 123 365 124 
 125 124 162 
 224 298 393 
 163 236 296 
 97 91 98 
 342 284 254 
 211 397 325 
 270 272 302 
 110 373 251 
 320 251 373 
 137 337 212 
 97 205 92 
 180 92 205 
 256 315 257 
 312 35 313 
 53 313 35 
 384 265 349 
 210 254 284 
 382 58 336 
 145 311 134 
 67 363 219 
 207 348 341 
 366 338 327 
 312 327 338 
 258 398 245 
 211 325 212 
 330 194 196 
 271 86 88 
 180 205 216 
 32 305 268 
 287 383 394 
 153 255 257 
 48 131 339 
 53 378 385 
 309 265 267 
 231 372 232 
 79 263 76 
 93 117 203 
 207 246 344 
 281 202 299 
 116 299 202 
 23 34 339 
 33 382 336 
 132 301 244 
 101 9 13 
 11 13 9 
 142 394 74 
 157 329 173 
 174 302 387 
 287 397 266 
 261 341 348 
 181 355 254 
 256 399 315 
 83 184 286 
 342 254 355 
 330 196 340 
 396 298 297 
 48 339 336 
 396 393 298 
 282 381 345 
 316 318 243 
 320 307 249 
 123 297 283 
 83 286 82 
 328 51 380 
 306 381 307 
 211 266 397 
 396 303 393 
 310 355 321 
 206 216 205 
 180 141 400 
 140 400 141 
 277 354 349 
 224 393 220 
 24 131 324 
 49 324 131 
 379 315 399 
 281 300 222 
 224 376 298 
 276 362 401 
 369 388 364 
 384 364 388 
 316 359 318 
 395 260 386 
 290 401 362 
 149 301 134 
 206 239 136 
 264 376 56 
 224 189 376 
 274 402 335 
 84 335 402 
 316 242 317 
 145 362 278 
 142 325 397 
 259 386 260 
 83 243 318 
 40 359 41 
 259 348 344 
 323 344 246 
 342 266 284 
 334 294 12 
 105 403 404 
 30 405 406 
 292 293 285 
 264 298 376 
 143 383 388 
 384 388 383 
 167 405 268 
 379 300 315 
 288 364 354 
 210 337 319 
 65 319 337 
 306 39 381 
 48 336 58 
 248 253 229 
 100 92 400 
 180 400 92 
 143 388 75 
 28 213 391 
 377 391 213 
 226 188 317 
 128 407 200 
 30 406 398 
 17 372 18 
 73 75 371 
 328 329 52 
 135 212 325 
 100 400 352 
 140 352 400 
 217 219 363 
 276 401 15 
 44 227 188 
 105 186 403 
 59 403 186 
 16 15 401 
 306 357 39 
 32 39 357 
 30 398 31 
 110 280 240 
 112 240 280 
 211 284 266 
 105 404 106 
 390 407 201 
 128 201 407 
 234 285 293 
 59 368 403 
 167 408 405 
 70 294 365 
 62 76 285 
 384 354 364 
 181 321 355 
 290 291 401 
 16 401 291 
 167 361 408 
 30 268 405 
 215 286 184 
 273 220 393 
 258 31 398 
 46 171 247 
 252 247 171 
 206 237 239 
 8 229 253 
 80 346 102 
 10 102 346 
 84 18 335 
 71 82 286 
 46 402 45 
 274 45 402 
 84 402 247 
 223 358 20 
 21 20 358 
 191 239 237 
 295 120 275 
 46 156 171 
 169 171 156 
 287 394 397 
 66 305 357 
 32 357 305 
 384 349 354 
 113 178 331 
 115 331 178 
 37 275 120 
 142 397 394 
 295 346 120 
 46 247 402 
 126 350 225 
 252 225 350 
 295 275 293 
 80 120 346 
 234 293 275 
