TITLE      =  "2D FE Unstructured grid data" 
VARIABLES = "X", "Y", "U", "Dom" 
ZONE T="P1", F=FEPOINT, N= 392 E= 705  ET=TRIANGLE 
 3.232097 6.046488 9.278663 15
 3.313665 6.154677 9.468412 15
 3.153175 6.102249 9.255497 15
 4.843771 7.742307 12.586122 15
 4.766234 7.666049 12.432338 15
 4.942622 7.631082 12.573750 15
 3.173663 6.202900 9.376635 15
 3.309231 5.982487 9.291791 15
 3.141533 5.941434 9.083046 15
 4.821928 7.549235 12.371207 15
 3.291459 5.875754 9.167284 15
 2.866452 6.026040 8.892567 15
 2.981438 5.978270 8.959785 15
 2.938483 6.124635 9.063191 15
 3.052152 6.061598 9.113825 15
 2.395749 6.336443 8.732273 15
 2.472568 6.425853 8.898501 15
 2.316118 6.431808 8.748003 15
 2.973837 5.854323 8.828237 15
 2.857029 5.780483 8.637586 15
 3.046258 5.754431 8.800757 15
 2.381827 6.524349 8.906262 15
 2.916168 5.671409 8.587650 15
 3.642383 7.890832 11.533298 15
 3.511250 7.910295 11.421621 15
 3.556786 7.772664 11.329531 15
 3.421979 7.817657 11.239721 15
 2.815677 6.244118 9.059875 15
 2.974875 6.266385 9.241330 15
 2.871979 6.348311 9.220368 15
 3.828752 6.011590 9.840396 15
 3.775733 5.907977 9.683766 15
 3.940711 5.922763 9.863526 15
 3.720820 6.912322 10.633227 15
 3.724187 6.781441 10.505705 15
 3.827966 6.839842 10.667886 15
 2.615458 6.362182 8.977718 15
 2.774981 6.409706 9.184771 15
 2.621361 6.497158 9.118610 15
 3.623137 6.846333 10.469547 15
 3.481136 6.425205 9.906418 15
 3.351527 6.339208 9.690806 15
 3.475854 6.270106 9.746038 15
 4.543251 6.941085 11.484385 15
 4.651010 6.849020 11.500066 15
 4.676975 7.006541 11.683552 15
 3.711240 7.702978 11.414301 15
 3.753700 7.593210 11.346991 15
 3.852340 7.744352 11.596771 15
 3.880420 7.593835 11.474328 15
 4.209164 6.676344 10.885569 15
 4.083702 6.608777 10.692548 15
 4.210244 6.520789 10.731094 15
 4.047033 6.461767 10.508865 15
 3.213394 5.191581 8.405025 15
 3.306184 5.104462 8.410691 15
 3.298322 5.287309 8.585684 15
 4.176283 7.510770 11.687123 15
 4.021476 7.534031 11.555581 15
 4.107207 7.367772 11.475046 15
 3.968200 7.421478 11.389757 15
 3.598216 6.522669 10.120955 15
 3.456605 6.579809 10.036493 15
 3.615132 6.728545 10.343756 15
 3.406950 5.209372 8.616372 15
 4.007149 7.706590 11.713818 15
 3.301613 6.552069 9.853764 15
 3.350997 6.695115 10.046202 15
 3.245531 7.230278 10.475905 15
 3.155838 7.313945 10.469879 15
 3.091022 7.181091 10.272205 15
 3.131414 6.406967 9.538461 15
 2.996739 6.405838 9.402654 15
 3.095015 6.292739 9.387836 15
 3.589037 5.975732 9.564833 15
 3.508303 6.124942 9.633311 15
 3.423122 6.009644 9.432840 15
 3.447616 5.752425 9.200099 15
 3.519192 5.612889 9.132141 15
 3.560547 5.764571 9.325180 15
 3.203882 5.822182 9.026136 15
 3.621964 6.380307 10.002342 15
 3.617217 6.218404 9.835690 15
 3.045278 7.292064 10.337436 15
 3.892871 7.484823 11.377771 15
 3.001331 5.595352 8.596754 15
 3.073294 5.462520 8.535877 15
 3.104973 5.640267 8.745303 15
 3.036210 5.285058 8.321326 15
 3.164217 5.324009 8.488280 15
 2.639488 5.494450 8.134001 15
 2.767023 5.534519 8.301605 15
 2.638286 5.646004 8.284356 15
 2.791103 5.659033 8.450205 15
 4.374683 7.131568 11.506306 15
 4.237511 7.038578 11.276152 15
 4.349758 7.017886 11.367696 15
 4.218152 7.147321 11.365534 15
 3.199978 6.629252 9.829312 15
 3.777973 6.416477 10.194516 15
 3.922608 6.355734 10.278406 15
 3.912579 6.474751 10.387398 15
 4.145229 7.234875 11.380175 15
 4.059261 7.122772 11.182107 15
 4.813176 7.911351 12.724568 15
 4.948983 7.864202 12.813229 15
 3.510746 5.861794 9.372612 15
 3.652773 5.830866 9.483699 15
 3.369663 6.458298 9.828041 15
 3.927176 6.221677 10.148916 15
 3.770183 6.156655 9.926902 15
 3.938392 6.086611 10.025058 15
 2.740520 6.528897 9.269504 15
 3.629506 5.674319 9.303886 15
 3.510660 7.636990 11.147741 15
 3.447775 7.505364 10.953230 15
 3.627092 7.551364 11.178542 15
 3.559541 7.424548 10.984179 15
 5.087629 7.126500 12.214157 15
 5.238856 7.112688 12.351568 15
 5.122115 7.262406 12.384560 15
 5.279744 7.252313 12.532084 15
 4.534422 7.490746 12.025227 15
 4.536436 7.376394 11.912884 15
 4.672927 7.475581 12.148558 15
 4.652640 7.350923 12.003612 15
 3.222589 6.303521 9.526179 15
 4.834458 7.281233 12.115729 15
 4.974308 7.230979 12.205327 15
 4.991446 7.348893 12.340376 15
 4.900292 7.423846 12.324173 15
 3.714106 6.028776 9.742948 15
 2.958092 5.380297 8.338451 15
 2.482970 5.945004 8.428048 15
 2.594559 5.844851 8.439484 15
 2.656853 5.952880 8.609801 15
 4.576108 7.607667 12.183826 15
 2.944302 7.070577 10.014972 15
 2.884941 6.941597 9.826628 15
 3.017774 6.951748 9.969613 15
 2.956478 6.808999 9.765570 15
 4.386937 7.957093 12.344088 15
 4.280149 8.028477 12.308692 15
 4.251044 7.871155 12.122266 15
 2.521891 6.696742 9.218718 15
 2.417243 6.654553 9.071880 15
 2.566158 6.600378 9.166625 15
 2.477557 6.542108 9.019748 15
 4.121198 7.040025 11.161291 15
 4.711037 7.794382 12.505465 15
 3.416707 5.654121 9.070893 15
 4.598866 7.059680 11.658600 15
 3.819483 6.289340 10.108888 15
 3.572550 6.630432 10.203063 15
 3.721129 6.618779 10.339981 15
 3.455959 8.054653 11.510691 15
 3.603015 8.014289 11.617384 15
 2.942381 7.236932 10.179406 15
 2.573590 6.040870 8.614535 15
 2.505281 5.722375 8.227728 15
 2.360957 5.697104 8.058128 15
 2.499365 5.572994 8.072431 15
 3.720242 7.024384 10.744702 15
 3.818640 6.978978 10.797698 15
 3.808242 7.139900 10.948219 15
 4.053305 6.149411 10.202775 15
 4.050350 6.303873 10.354286 15
 3.224849 6.748847 9.973781 15
 2.688408 6.845854 9.534349 15
 2.552580 6.887485 9.440156 15
 2.618056 6.741405 9.359550 15
 3.710642 6.294157 10.004859 15
 2.958561 5.491240 8.449870 15
 4.468042 7.715165 12.183265 15
 4.502781 7.876628 12.379466 15
 4.367325 7.805503 12.172891 15
 4.584562 7.758676 12.343291 15
 4.511151 8.049745 12.560946 15
 4.448827 8.208036 12.656919 15
 4.387048 8.081140 12.468250 15
 3.387095 5.854040 9.241207 15
 2.862174 6.578849 9.441103 15
 2.968595 6.656877 9.625554 15
 2.851676 6.706321 9.558083 15
 3.635663 6.101223 9.736955 15
 3.758244 7.836802 11.595120 15
 3.182012 5.557523 8.739597 15
 4.153456 7.978736 12.132259 15
 4.177986 8.088549 12.266594 15
 4.026791 8.054142 12.081000 15
 4.308178 8.162348 12.470584 15
 4.310953 8.315970 12.626983 15
 3.481774 7.339940 10.821803 15
 3.377903 7.389180 10.767178 15
 4.581967 7.159510 11.741523 15
 4.698600 7.260993 11.959641 15
 4.564543 7.276639 11.841231 15
 4.715678 7.142967 11.858697 15
 3.910329 7.913257 11.823656 15
 4.106899 8.169879 12.276841 15
 4.776976 6.939325 11.716333 15
 3.277380 6.882189 10.159654 15
 3.118363 6.849500 9.967952 15
 3.163727 6.971000 10.134819 15
 3.189896 5.445690 8.635648 15
 4.707977 7.588343 12.296374 15
 4.770649 7.392766 12.163454 15
 5.097023 7.394842 12.491893 15
 2.464019 7.022563 9.486675 15
 2.437755 6.885254 9.323099 15
 2.883681 5.235128 8.118872 15
 3.919438 7.045442 10.964959 15
 4.951414 7.741698 12.693157 15
 4.193398 8.227467 12.420922 15
 3.219912 7.099728 10.319735 15
 5.019200 7.792492 12.811735 15
 5.087064 7.877637 12.964740 15
 4.045402 7.234003 11.279483 15
 2.574666 7.007318 9.582069 15
 3.764626 7.978360 11.743061 15
 4.597871 7.963859 12.561784 15
 2.651590 6.943803 9.595479 15
 3.081839 7.047856 10.129784 15
 2.493084 6.794065 9.287238 15
 2.363943 6.802744 9.166774 15
 3.838081 6.567790 10.405939 15
 4.856603 7.145395 12.002041 15
 3.384366 7.927693 11.312141 15
 3.246407 7.816896 11.063388 15
 4.142662 7.770654 11.913384 15
 4.062350 7.835704 11.898124 15
 3.185332 5.716519 8.901921 15
 2.843946 5.346820 8.190829 15
 3.064560 6.175085 9.239724 15
 2.515239 6.158843 8.674158 15
 2.660096 6.213124 8.873297 15
 2.510188 6.287699 8.797963 15
 3.963344 8.167383 12.130795 15
 3.102245 5.190632 8.292933 15
 3.193439 5.063548 8.257041 15
 4.872307 7.020385 11.892727 15
 4.921848 6.875056 11.796930 15
 4.252996 7.294376 11.547434 15
 4.354853 7.244166 11.599081 15
 3.538919 6.806466 10.345464 15
 3.826000 6.707777 10.533852 15
 5.020481 7.500053 12.520569 15
 3.064626 6.488285 9.552996 15
 5.001524 7.020991 12.022554 15
 5.076235 6.911542 11.987824 15
 3.349836 7.708594 11.058524 15
 2.808614 7.168708 9.977413 15
 2.811126 6.830569 9.641787 15
 3.167779 7.683233 10.851106 15
 3.263058 7.656786 10.919931 15
 2.346585 6.143816 8.490477 15
 2.411268 6.239966 8.651314 15
 2.282090 6.289904 8.572077 15
 3.969505 6.572711 10.542276 15
 4.031507 7.932813 11.964392 15
 2.181320 6.395429 8.576826 15
 2.088911 6.516935 8.605923 15
 2.078305 6.379520 8.457904 15
 3.953669 7.810437 11.764183 15
 4.921330 7.526054 12.447424 15
 3.668547 7.791031 11.459661 15
 2.465141 6.063437 8.528653 15
 4.963239 7.116050 12.079321 15
 3.755050 7.484173 11.239306 15
 3.678781 7.358489 11.037359 15
 3.839210 7.390600 11.229895 15
 3.572624 7.136677 10.709382 15
 3.620426 6.995499 10.616009 15
 3.674249 7.116525 10.790861 15
 3.315720 5.737246 9.053039 15
 3.512885 7.022688 10.535650 15
 2.717383 6.311791 9.029248 15
 2.796990 6.126307 8.923376 15
 3.924407 6.778689 10.703171 15
 3.918741 6.904608 10.823428 15
 3.706648 6.508783 10.215507 15
 2.772497 6.631569 9.404154 15
 4.187191 6.370886 10.558135 15
 2.703638 6.067058 8.770774 15
 4.231218 7.410373 11.641653 15
 4.282556 6.957081 11.239695 15
 4.143545 6.940578 11.084184 15
 4.203537 6.832942 11.036538 15
 4.446509 7.322335 11.768899 15
 4.440694 7.457618 11.898368 15
 3.090335 6.712043 9.802466 15
 3.251264 5.385256 8.636577 15
 3.381427 5.371530 8.753011 15
 3.278691 5.499142 8.777893 15
 4.347909 7.403681 11.751653 15
 2.709536 7.054564 9.764188 15
 2.821318 7.035058 9.856468 15
 3.409681 5.515831 8.925564 15
 5.115304 7.631296 12.746632 15
 4.102388 6.731255 10.833710 15
 4.042965 6.835967 10.879002 15
 5.154410 7.012564 12.166999 15
 3.919992 8.025494 11.945553 15
 4.657690 8.056572 12.714312 15
 3.914390 6.657681 10.572139 15
 3.414002 6.824035 10.238119 15
 3.397062 6.972573 10.369720 15
 4.054682 8.266901 12.321647 15
 3.578867 7.278636 10.857597 15
 2.444946 5.828526 8.273536 15
 2.208205 6.496840 8.705121 15
 2.986669 5.144243 8.130972 15
 2.771141 5.990453 8.761671 15
 4.476462 7.048297 11.524812 15
 4.404589 6.915154 11.319795 15
 2.741679 5.866411 8.608160 15
 2.704592 5.756721 8.461385 15
 3.770442 7.300319 11.070848 15
 4.251238 7.728322 11.979630 15
 2.974607 6.528362 9.503056 15
 3.704860 7.213806 10.918754 15
 3.874635 7.269837 11.144556 15
 2.269654 6.706133 8.975873 15
 4.141549 7.641022 11.782638 15
 2.870167 6.466660 9.336907 15
 3.971478 7.312364 11.283918 15
 4.667230 7.685610 12.352894 15
 4.614072 7.870597 12.484721 15
 3.510435 5.292639 8.803124 15
 3.519774 5.432137 8.951964 15
 4.361379 7.659491 12.020928 15
 4.454059 7.580986 12.035104 15
 3.205936 7.420095 10.626123 15
 3.182489 7.548820 10.731400 15
 3.067519 7.422348 10.489960 15
 3.338020 5.587583 8.925664 15
 4.357193 7.543555 11.900812 15
 2.952770 7.357646 10.310507 15
 3.440204 7.103339 10.543633 15
 3.340920 7.072015 10.413025 15
 4.140000 7.877362 12.017427 15
 4.380692 6.783002 11.163746 15
 4.504460 6.802976 11.307478 15
 5.028214 7.709449 12.737700 15
 2.359648 5.921749 8.281468 15
 3.943378 7.179153 11.122606 15
 4.309435 6.850822 11.160310 15
 3.603919 7.676636 11.280640 15
 2.676126 6.621308 9.297521 15
 3.305654 7.465668 10.771415 15
 4.001836 6.698579 10.700487 15
 4.286083 6.765038 11.051181 15
 3.350084 7.183947 10.534122 15
 3.075473 6.590240 9.665797 15
 2.613141 6.119974 8.733193 15
 2.747687 5.279744 8.027492 15
 2.885120 5.567744 8.452928 15
 2.275002 6.571133 8.846213 15
 4.022027 6.978586 11.000679 15
 3.320114 7.573364 10.893567 15
 5.209591 7.373124 12.582747 15
 2.861234 5.904022 8.765326 15
 3.277499 6.994697 10.272286 15
 2.606400 5.743266 8.349737 15
 2.586080 7.112348 9.698520 15
 4.776282 7.054303 11.830631 15
 3.243331 5.637528 8.880923 15
 3.467101 7.227109 10.694298 15
 2.761153 6.941907 9.703147 15
 3.316807 6.787547 10.104445 15
 2.755666 5.402276 8.158006 15
 4.464261 7.193318 11.657634 15
 2.384405 6.022806 8.407283 15
 5.125394 7.766198 12.891631 15
 5.229473 7.854873 13.084373 15
 3.170548 6.517179 9.687811 15
 3.481405 6.723879 10.205363 15
 2.874966 5.450286 8.325317 15
 4.258708 7.599420 11.858196 15
 5.162119 7.494687 12.656840 15
 3.652785 7.454267 11.107140 15
 3.256470 6.430376 9.686925 15
 2.138969 6.287920 8.426968 15
 3.366880 7.285813 10.652786 15
 3.278885 7.344421 10.623407 15
 3.451642 7.720843 11.172569 15
 4.274262 7.493560 11.767888 15
 2.178055 6.622899 8.801031 15
 3.519023 6.909560 10.428665 15
 4.698055 7.935896 12.634002 15
 3.408854 7.624741 11.033676 15
 2.733116 6.724302 9.457501 15
 1 2 3 
 4 5 6 
 2 7 3 
 8 1 9 
 5 10 6 
 11 8 9 
 12 13 14 
 13 15 14 
 16 17 18 
 19 20 21 
 18 17 22 
 20 23 21 
 24 25 26 
 27 26 25 
 28 29 30 
 28 14 29 
 31 32 33 
 34 35 36 
 37 38 39 
 40 35 34 
 41 42 43 
 2 43 42 
 44 45 46 
 47 48 49 
 49 48 50 
 51 52 53 
 54 53 52 
 19 21 9 
 55 56 57 
 58 59 60 
 61 60 59 
 41 62 63 
 64 35 40 
 57 56 65 
 66 50 59 
 15 9 3 
 67 63 68 
 9 1 3 
 69 70 71 
 72 73 74 
 29 74 73 
 75 76 77 
 78 79 80 
 9 21 81 
 2 77 76 
 41 43 82 
 83 82 43 
 84 71 70 
 50 85 59 
 86 87 88 
 89 90 87 
 91 92 93 
 94 93 92 
 95 96 97 
 95 98 96 
 67 68 99 
 100 101 102 
 98 103 104 
 105 4 106 
 75 107 108 
 2 8 77 
 67 109 63 
 41 63 109 
 110 111 112 
 31 112 111 
 38 113 39 
 114 80 79 
 75 108 32 
 115 116 117 
 118 117 116 
 119 120 121 
 122 121 120 
 2 1 8 
 123 124 125 
 126 125 124 
 54 102 101 
 31 33 112 
 2 42 127 
 128 129 130 
 128 130 131 
 75 32 132 
 89 87 133 
 134 135 136 
 2 127 7 
 66 49 50 
 123 125 137 
 138 139 140 
 141 140 139 
 142 143 144 
 145 146 147 
 147 146 148 
 149 98 104 
 105 150 4 
 78 151 79 
 44 46 152 
 100 153 101 
 64 154 155 
 156 25 157 
 110 153 111 
 84 158 71 
 138 71 158 
 134 136 159 
 2 76 43 
 160 161 162 
 163 164 165 
 110 166 167 
 119 121 129 
 168 99 68 
 169 170 171 
 83 111 172 
 86 173 87 
 108 107 80 
 174 175 176 
 174 177 175 
 178 179 180 
 77 8 181 
 182 183 184 
 83 185 111 
 47 49 186 
 91 93 162 
 142 175 178 
 87 187 88 
 188 189 190 
 191 179 192 
 193 118 116 
 194 193 116 
 195 196 197 
 195 198 196 
 129 121 130 
 199 186 49 
 200 190 189 
 46 45 201 
 168 202 203 
 204 203 202 
 77 181 107 
 41 109 42 
 87 90 205 
 125 206 137 
 126 207 125 
 208 130 121 
 31 111 132 
 209 210 170 
 54 101 167 
 29 73 30 
 188 144 143 
 75 77 107 
 89 133 211 
 212 165 164 
 4 213 106 
 191 214 189 
 69 71 215 
 41 82 62 
 216 217 106 
 218 104 103 
 209 170 219 
 199 220 186 
 126 196 207 
 64 155 35 
 178 175 221 
 155 154 62 
 169 222 170 
 10 207 131 
 138 223 71 
 145 224 146 
 224 225 146 
 100 102 226 
 128 227 129 
 27 228 229 
 66 230 231 
 232 81 21 
 211 133 233 
 15 234 14 
 204 140 203 
 19 9 13 
 15 13 9 
 235 236 237 
 37 237 236 
 195 152 198 
 46 198 152 
 11 181 8 
 24 220 157 
 141 184 183 
 200 238 190 
 55 239 240 
 241 201 242 
 243 98 244 
 95 244 98 
 64 40 245 
 155 226 246 
 131 130 247 
 72 248 73 
 61 59 85 
 142 144 176 
 241 242 249 
 250 249 242 
 27 229 251 
 83 43 76 
 138 158 252 
 10 125 207 
 156 228 25 
 208 247 130 
 11 9 81 
 75 185 76 
 141 253 184 
 254 255 229 
 256 257 258 
 54 259 102 
 191 189 143 
 188 190 260 
 261 262 263 
 111 153 172 
 66 231 264 
 10 131 265 
 128 198 227 
 47 186 266 
 235 256 267 
 241 268 227 
 269 270 271 
 272 273 274 
 11 81 275 
 276 273 272 
 199 264 260 
 277 28 30 
 38 277 30 
 28 236 278 
 36 279 280 
 243 60 103 
 141 203 140 
 241 249 268 
 141 139 253 
 62 82 281 
 182 184 282 
 54 167 283 
 231 260 264 
 284 278 236 
 243 285 60 
 119 129 268 
 100 226 281 
 235 257 256 
 286 287 288 
 289 124 290 
 100 281 82 
 54 52 259 
 141 291 203 
 292 293 294 
 4 6 213 
 289 290 295 
 296 297 252 
 138 252 297 
 293 298 294 
 299 6 247 
 51 288 300 
 301 300 288 
 119 249 302 
 250 302 249 
 66 264 49 
 199 260 303 
 304 178 221 
 54 283 53 
 305 246 226 
 306 307 202 
 170 224 171 
 286 97 96 
 128 131 207 
 37 277 38 
 148 22 17 
 163 165 274 
 160 162 93 
 214 308 200 
 86 21 23 
 190 303 260 
 110 112 166 
 199 49 264 
 118 309 270 
 11 275 181 
 24 186 220 
 289 295 244 
 243 244 295 
 138 297 139 
 160 310 161 
 261 311 262 
 36 246 279 
 111 185 132 
 89 211 312 
 155 62 281 
 12 278 313 
 16 18 258 
 261 258 18 
 128 207 196 
 44 314 315 
 316 135 317 
 141 183 291 
 270 318 271 
 319 176 144 
 155 246 35 
 51 300 52 
 182 320 183 
 216 106 213 
 292 205 90 
 319 144 230 
 142 178 180 
 321 165 318 
 322 318 165 
 119 302 120 
 218 103 60 
 190 238 303 
 225 323 146 
 66 324 230 
 38 325 113 
 218 60 326 
 61 326 60 
 327 150 177 
 328 177 150 
 199 303 220 
 65 329 293 
 330 293 329 
 174 331 332 
 333 334 335 
 58 324 59 
 66 59 324 
 182 113 325 
 298 151 336 
 29 14 234 
 79 151 298 
 63 62 154 
 337 332 331 
 84 338 158 
 229 255 251 
 314 97 315 
 316 317 20 
 94 20 317 
 168 203 291 
 58 60 285 
 61 271 326 
 322 326 271 
 276 339 307 
 340 307 339 
 330 79 298 
 144 341 230 
 55 240 56 
 321 270 309 
 328 221 175 
 47 117 48 
 342 343 315 
 44 315 343 
 327 177 137 
 174 137 177 
 4 150 5 
 160 135 310 
 134 310 135 
 16 258 257 
 299 344 6 
 134 345 310 
 322 346 326 
 200 189 214 
 71 223 215 
 286 96 287 
 10 265 6 
 84 335 338 
 204 223 140 
 286 288 347 
 47 348 117 
 218 326 346 
 284 313 278 
 138 140 223 
 349 171 147 
 145 147 171 
 110 101 153 
 321 309 272 
 194 116 350 
 10 206 125 
 204 215 223 
 301 279 351 
 114 108 80 
 301 351 300 
 37 39 17 
 148 17 39 
 51 352 288 
 44 343 45 
 168 291 99 
 69 215 353 
 340 353 215 
 50 48 269 
 85 50 269 
 354 99 291 
 232 275 81 
 284 236 355 
 356 211 233 
 100 82 172 
 301 288 287 
 327 5 150 
 94 92 357 
 78 80 107 
 316 136 135 
 358 146 323 
 100 172 153 
 94 317 93 
 149 96 98 
 191 180 179 
 354 291 183 
 212 359 104 
 174 176 331 
 319 331 176 
 243 103 98 
 360 334 350 
 28 277 236 
 128 196 198 
 126 197 196 
 131 247 265 
 208 121 361 
 122 361 121 
 19 13 362 
 12 14 278 
 87 205 187 
 110 167 101 
 360 350 116 
 202 307 363 
 37 236 277 
 160 93 364 
 94 357 23 
 235 355 236 
 333 350 334 
 296 365 219 
 142 176 175 
 46 366 198 
 336 367 294 
 187 294 367 
 118 193 309 
 200 308 238 
 12 362 13 
 328 175 177 
 321 274 165 
 368 272 309 
 327 137 206 
 169 253 369 
 168 370 202 
 301 287 359 
 301 280 279 
 330 298 293 
 91 371 92 
 349 39 113 
 195 372 314 
 95 314 372 
 198 366 227 
 301 359 280 
 31 132 32 
 160 364 135 
 204 202 363 
 256 373 267 
 306 202 370 
 216 374 217 
 375 217 374 
 368 339 272 
 276 272 339 
 67 99 376 
 269 48 117 
 155 281 226 
 65 293 57 
 292 57 293 
 63 377 68 
 306 68 377 
 142 180 143 
 191 143 180 
 354 183 320 
 378 92 371 
 296 219 222 
 58 379 324 
 27 25 228 
 208 380 247 
 55 57 90 
 292 90 57 
 83 76 185 
 75 132 185 
 139 369 253 
 135 364 317 
 319 324 379 
 24 157 25 
 16 237 17 
 83 172 82 
 299 374 344 
 241 227 366 
 145 171 224 
 212 104 346 
 378 233 133 
 37 17 237 
 36 280 164 
 191 192 214 
 115 117 348 
 322 165 346 
 19 362 20 
 78 181 275 
 243 295 285 
 299 247 380 
 44 152 314 
 208 361 380 
 321 318 270 
 118 270 381 
 148 146 22 
 358 22 146 
 269 381 270 
 67 376 382 
 284 159 136 
 261 383 258 
 336 294 298 
 212 164 280 
 69 384 385 
 115 26 386 
 27 386 26 
 316 20 362 
 69 353 384 
 149 359 287 
 360 255 334 
 89 312 239 
 212 346 165 
 129 227 268 
 340 363 307 
 269 117 381 
 306 370 68 
 212 280 359 
 123 290 124 
 118 381 117 
 28 278 14 
 72 127 382 
 42 382 127 
 337 331 379 
 174 332 137 
 24 26 266 
 216 344 374 
 187 367 88 
 232 88 367 
 337 387 295 
 168 68 370 
 254 334 255 
 319 230 324 
 115 348 26 
 337 295 290 
 163 274 273 
 119 268 249 
 86 357 173 
 204 363 215 
 340 215 363 
 6 265 247 
 149 104 359 
 356 233 371 
 321 272 274 
 94 23 20 
 349 147 39 
 148 39 147 
 134 373 345 
 63 154 377 
 64 377 154 
 134 159 267 
 336 151 275 
 78 275 151 
 358 323 388 
 354 376 99 
 235 237 257 
 188 143 189 
 276 389 273 
 378 357 92 
 105 390 150 
 86 88 21 
 232 21 88 
 328 150 390 
 40 273 389 
 78 107 181 
 276 307 389 
 149 287 96 
 36 35 246 
 360 116 391 
 115 391 116 
 72 376 248 
 169 369 222 
 306 389 307 
 170 222 219 
 368 353 339 
 340 339 353 
 360 391 251 
 27 251 386 
 306 377 245 
 360 251 255 
 84 70 335 
 333 335 70 
 262 311 388 
 358 388 311 
 169 392 253 
 188 341 144 
 319 379 331 
 209 219 365 
 55 90 239 
 89 239 90 
 123 137 332 
 358 18 22 
 368 309 193 
 235 159 355 
 24 266 186 
 336 275 367 
 316 313 136 
 358 311 18 
 261 18 311 
 269 271 85 
 194 350 385 
 333 385 350 
 134 267 373 
 16 257 237 
 232 367 275 
 52 351 259 
 306 245 389 
 86 23 357 
 284 136 313 
 184 253 392 
 241 366 201 
 46 201 366 
 235 267 159 
 316 362 313 
 333 70 385 
 69 385 70 
 305 279 246 
 284 355 159 
 95 97 314 
 182 282 113 
 322 271 318 
 12 313 362 
 195 314 152 
 47 266 348 
 26 348 266 
 72 382 376 
 305 259 351 
 58 387 379 
 286 315 97 
 38 30 325 
 67 382 109 
 42 109 382 
 378 371 233 
 61 85 271 
 52 300 351 
 73 320 325 
 182 325 320 
 102 259 226 
 305 226 259 
 337 379 387 
 36 164 34 
 349 113 282 
 305 351 279 
 296 222 369 
 169 171 392 
 10 5 206 
 289 197 124 
 64 245 377 
 7 74 234 
 29 234 74 
 349 392 171 
 188 260 341 
 231 341 260 
 73 325 30 
 289 244 372 
 95 372 244 
 295 387 285 
 163 34 164 
 231 230 341 
 218 346 104 
 72 74 127 
 7 127 74 
 368 193 384 
 194 384 193 
 126 124 197 
 93 317 364 
 286 347 315 
 342 315 347 
 378 173 357 
 304 221 390 
 328 390 221 
 378 133 173 
 289 372 197 
 40 389 245 
 163 273 34 
 40 34 273 
 354 248 376 
 261 263 383 
 296 369 297 
 194 385 384 
 349 282 392 
 368 384 353 
 195 197 372 
 139 297 369 
 87 173 133 
 187 205 294 
 292 294 205 
 58 285 387 
 337 290 332 
 123 332 290 
 73 248 320 
 354 320 248 
 327 206 5 
 170 210 224 
 225 224 210 
 7 234 3 
 15 3 234 
 184 392 282 
 115 386 391 
 251 391 386 
 216 213 344 
 6 344 213 
 288 352 347 
 342 347 352 
