TITLE      =  "2D FE Unstructured grid data" 
VARIABLES = "X", "Y", "U", "Dom" 
ZONE T="P1", F=FEPOINT, N= 387 E= 702  ET=TRIANGLE 
 1.891838 1.660905 3.552726 11
 1.812134 1.749249 3.561367 11
 1.768777 1.588196 3.356959 11
 1.715435 1.715435 3.430855 11
 1.754323 2.040810 3.795120 11
 1.758451 2.202305 3.960742 11
 1.616540 2.144050 3.760579 11
 2.224255 0.306330 2.530584 11
 2.388637 0.301507 2.690140 11
 2.347324 0.430043 2.777362 11
 3.475663 0.888661 4.364309 11
 3.630861 0.810948 4.441793 11
 3.620797 0.962889 4.583668 11
 2.234407 0.657481 2.891878 11
 2.120073 0.575014 2.695079 11
 2.240137 0.511258 2.751390 11
 1.127248 1.726203 2.853445 11
 1.287513 1.779542 3.067046 11
 1.172185 1.879920 3.052099 11
 3.526508 0.747543 4.274038 11
 2.646301 0.922937 3.569224 11
 2.670109 0.789847 3.459944 11
 2.774578 0.915790 3.690352 11
 1.198950 0.801339 2.000284 11
 1.130480 0.928674 2.059148 11
 1.047596 0.816552 1.864144 11
 2.809502 0.795452 3.604942 11
 2.287620 1.524415 3.812012 11
 2.254541 1.369898 3.624421 11
 2.361500 1.418024 3.779501 11
 2.169859 1.495364 3.665202 11
 3.339667 0.912487 4.252136 11
 3.270177 0.973470 4.243628 11
 3.207373 0.855838 4.063196 11
 2.810024 0.456545 3.266564 11
 2.953604 0.456908 3.410507 11
 2.865226 0.576531 3.441751 11
 2.902658 1.497932 4.400561 11
 2.858719 1.367423 4.226114 11
 3.032295 1.365025 4.397293 11
 3.029496 1.489282 4.518749 11
 1.616217 1.525900 3.142104 11
 1.625544 1.659426 3.284959 11
 3.472222 0.000000 3.472222 11
 3.611111 0.000000 3.611111 11
 3.516792 0.145812 3.662604 11
 1.334896 0.555154 1.890045 11
 1.426591 0.410512 1.837099 11
 1.466554 0.565998 2.032548 11
 3.641623 0.107255 3.748875 11
 1.919936 1.270345 3.190269 11
 1.755492 1.254920 3.010400 11
 1.871586 1.127154 2.998730 11
 1.739587 1.082100 2.821678 11
 2.271795 0.209714 2.481507 11
 1.527778 0.000000 1.527778 11
 1.666667 0.000000 1.666667 11
 1.589848 0.164068 1.753914 11
 3.350452 0.817033 4.167470 11
 2.339659 0.578731 2.918382 11
 1.946766 2.013768 3.960517 11
 1.849528 1.959829 3.809341 11
 1.990244 1.885894 3.876117 11
 1.305229 0.389658 1.694883 11
 0.868734 0.211318 1.080051 11
 0.964521 0.286455 1.250974 11
 0.812346 0.369957 1.182301 11
 1.582600 0.637034 2.219629 11
 1.586031 0.794422 2.380447 11
 1.444892 0.702479 2.147368 11
 1.455321 0.867097 2.322415 11
 1.700395 1.421035 3.121418 11
 1.848912 1.412530 3.261427 11
 3.828493 1.142571 4.971038 11
 3.683397 1.093184 4.776559 11
 3.767156 0.999493 4.766631 11
 1.805556 0.000000 1.805556 11
 1.903467 0.135013 2.038480 11
 1.734081 0.126238 1.860319 11
 1.218172 1.198164 2.416331 11
 1.350614 1.261764 2.612371 11
 1.181875 1.340844 2.522716 11
 2.581689 0.570891 3.152573 11
 2.727676 0.657350 3.385016 11
 2.592718 0.699527 3.292235 11
 1.950579 1.542280 3.492841 11
 1.388889 0.000000 1.388889 11
 1.451688 0.102339 1.554026 11
 1.291612 0.150376 1.441986 11
 1.618358 0.331709 1.950063 11
 1.559231 0.486486 2.045713 11
 1.495906 0.308210 1.804113 11
 1.969311 1.019273 2.988573 11
 2.061746 0.892063 2.953799 11
 2.102736 1.025609 3.128334 11
 0.833333 0.000000 0.833333 11
 0.952749 0.121463 1.074211 11
 0.771428 0.118995 0.890423 11
 2.650289 0.424858 3.075141 11
 2.789191 0.325970 3.115157 11
 2.436220 1.687967 4.124158 11
 2.544760 1.593015 4.137746 11
 2.582546 1.762051 4.344565 11
 2.322065 1.125849 3.447898 11
 2.203482 1.235145 3.438611 11
 2.203379 1.083952 3.287314 11
 3.215673 0.712031 3.927692 11
 1.224287 0.296905 1.521190 11
 1.202538 0.454328 1.656863 11
 1.086883 0.329925 1.416806 11
 1.204282 1.580212 2.784488 11
 1.276246 1.667205 2.943441 11
 3.351627 0.668842 4.020457 11
 1.604082 1.158693 2.762767 11
 3.714597 0.708935 4.423521 11
 3.702993 0.565209 4.268195 11
 3.848248 0.685716 4.533951 11
 1.859522 1.853826 3.713332 11
 2.530812 1.259939 3.790731 11
 2.437385 1.333153 3.770516 11
 2.440845 1.158403 3.599232 11
 2.303614 2.080386 4.383977 11
 2.467033 2.125870 4.592873 11
 2.314073 2.205104 4.519153 11
 2.344617 1.257511 3.602110 11
 2.523767 0.807827 3.331582 11
 2.500000 0.000000 2.500000 11
 2.638889 0.000000 2.638889 11
 2.580803 0.155104 2.735906 11
 3.327806 1.347803 4.675581 11
 3.391597 1.254465 4.646039 11
 3.469650 1.397828 4.867448 11
 3.500594 1.253994 4.754565 11
 2.446260 0.545086 2.991339 11
 1.083317 1.567965 2.651275 11
 1.345006 0.811477 2.156478 11
 3.021576 1.079524 4.101080 11
 3.150005 1.136741 4.286723 11
 3.024085 1.210747 4.234808 11
 3.136336 1.263274 4.399583 11
 3.039363 0.550608 3.589964 11
 2.615546 1.082204 3.697735 11
 2.523352 0.955785 3.479125 11
 1.556893 1.896948 3.453830 11
 1.426256 1.824901 3.251148 11
 1.530432 1.733837 3.264259 11
 1.250000 0.000000 1.250000 11
 3.522048 1.072109 4.594135 11
 2.705536 0.097139 2.802673 11
 2.114829 1.161689 3.276504 11
 1.428417 0.211565 1.639981 11
 1.414853 1.981967 3.396812 11
 2.992458 1.606666 4.599092 11
 2.871074 1.633615 4.504654 11
 2.715771 1.861416 4.577154 11
 2.616538 1.926217 4.542723 11
 2.897116 0.362254 3.259367 11
 0.955972 0.412901 1.368870 11
 3.695457 1.200774 4.896205 11
 2.529763 0.315156 2.844915 11
 2.496198 0.441729 2.937920 11
 2.201414 0.412802 2.614211 11
 1.612268 1.306570 2.918829 11
 2.083333 0.000000 2.083333 11
 2.222222 0.000000 2.222222 11
 2.155499 0.130976 2.286476 11
 2.513322 1.423509 3.936808 11
 2.630529 1.357583 3.988089 11
 1.311510 1.415828 2.727330 11
 2.705582 0.204520 2.910102 11
 2.647284 0.296403 2.943682 11
 1.322060 0.701230 2.023285 11
 1.321646 1.882507 3.204146 11
 3.404548 0.268258 3.672803 11
 3.461062 0.404400 3.865458 11
 3.328546 0.382219 3.710759 11
 3.377062 0.515177 3.892232 11
 2.673563 1.634048 4.307580 11
 2.763805 1.037202 3.800990 11
 3.601026 0.455091 4.056111 11
 3.536094 0.303084 3.839175 11
 1.627476 1.784595 3.412058 11
 2.518943 1.873322 4.392234 11
 3.615175 1.304414 4.919559 11
 1.940146 0.871278 2.811414 11
 2.910152 0.242337 3.152488 11
 3.056968 0.169976 3.226941 11
 3.022608 0.329511 3.352115 11
 1.126688 0.709832 1.836515 11
 2.023181 0.094830 2.118012 11
 1.802902 0.244661 2.047560 11
 3.484943 0.629437 4.114374 11
 2.404523 1.959093 4.363584 11
 1.284990 0.997983 2.282968 11
 1.130524 1.080647 2.211166 11
 3.181105 0.357897 3.538997 11
 3.139652 0.247285 3.386935 11
 3.290539 0.264936 3.555473 11
 3.651117 0.340842 3.991956 11
 2.765934 1.452646 4.218554 11
 2.749717 1.333528 4.083222 11
 2.138441 0.481055 2.619490 11
 3.358270 0.132785 3.491054 11
 2.983404 0.661308 3.644702 11
 1.866400 2.102868 3.969253 11
 1.636586 1.009266 2.645843 11
 1.732573 0.938516 2.671081 11
 2.426300 1.809981 4.236253 11
 2.331050 1.877390 4.208413 11
 3.424379 0.747733 4.172100 11
 1.717798 1.875217 3.593003 11
 2.065522 1.484890 3.550394 11
 2.097991 1.597253 3.695224 11
 2.649626 1.500520 4.150120 11
 1.638687 2.005035 3.643711 11
 3.212515 1.527108 4.739591 11
 3.306975 1.590395 4.897337 11
 3.193962 1.666452 4.860380 11
 1.710454 0.548027 2.258478 11
 3.333333 0.000000 3.333333 11
 1.998213 1.664424 3.662617 11
 3.578319 1.177414 4.755712 11
 1.494737 1.249506 2.744236 11
 1.464182 1.376227 2.840400 11
 1.846440 0.980156 2.826587 11
 2.864636 0.691966 3.556590 11
 1.341398 0.280135 1.621530 11
 1.831876 0.613857 2.445726 11
 1.973511 0.573318 2.546822 11
 1.925536 0.727707 2.653234 11
 2.071491 0.687137 2.758620 11
 2.262336 1.955468 4.217779 11
 1.580054 1.423513 3.003555 11
 1.117136 0.585166 1.702297 11
 0.943857 0.568149 1.512002 11
 1.061277 0.470094 1.531366 11
 3.322062 1.462646 4.784678 11
 3.408179 1.538060 4.946204 11
 2.713194 0.536243 3.249431 11
 1.728074 0.715074 2.443142 11
 1.345885 1.133201 2.479081 11
 1.645534 0.899312 2.544839 11
 1.544757 0.940892 2.485642 11
 1.507207 1.487833 2.995031 11
 1.691617 0.243349 1.934964 11
 2.413283 1.549996 3.963255 11
 3.136050 0.991132 4.127163 11
 1.279948 1.975235 3.255177 11
 2.928959 1.278061 4.206995 11
 1.818970 0.832252 2.651212 11
 3.108794 1.581715 4.690475 11
 1.244893 1.102499 2.347387 11
 1.672118 0.432130 2.104244 11
 3.055556 0.000000 3.055556 11
 2.952795 0.107677 3.060470 11
 1.115047 1.241050 2.356092 11
 1.031494 1.177436 2.208924 11
 2.865752 0.975219 3.840955 11
 2.901945 1.074872 3.976799 11
 2.819974 1.143045 3.963000 11
 1.096392 1.437640 2.534028 11
 1.034647 1.338494 2.373135 11
 3.754119 0.403516 4.157631 11
 1.458757 1.139654 2.598404 11
 3.761477 1.293916 5.055364 11
 2.087509 2.079071 4.166559 11
 2.189418 2.140769 4.330163 11
 2.059149 2.222981 4.282111 11
 2.199541 2.264792 4.464308 11
 1.944444 0.000000 1.944444 11
 2.162515 0.902203 3.064708 11
 1.994545 1.394618 3.389148 11
 2.029161 0.208161 2.237321 11
 3.080878 0.732427 3.813291 11
 3.040666 0.853878 3.894528 11
 3.722780 0.273609 3.996387 11
 3.726347 0.895825 4.622156 11
 1.928613 1.772891 3.701486 11
 1.223186 0.559792 1.782974 11
 2.725824 1.139400 3.865205 11
 2.811653 1.245847 4.057475 11
 3.204315 1.379568 4.583851 11
 3.259067 1.085353 4.344398 11
 0.972222 0.000000 0.972222 11
 1.226026 0.652913 1.878933 11
 2.314593 1.659975 3.974542 11
 2.601359 2.058598 4.659925 11
 2.521679 1.988620 4.510268 11
 3.121882 1.466238 4.588090 11
 3.258112 1.230243 4.488330 11
 2.420148 1.007251 3.427386 11
 2.662411 1.226015 3.888406 11
 2.777778 0.000000 2.777778 11
 2.916667 0.000000 2.916667 11
 2.824630 0.126071 2.950697 11
 3.155647 0.105018 3.260664 11
 1.414830 1.003783 2.418607 11
 2.953717 1.735142 4.688822 11
 2.026828 0.785144 2.811964 11
 2.076653 0.355921 2.432574 11
 1.928411 0.294825 2.223235 11
 1.942917 0.425354 2.368268 11
 1.003319 0.703230 1.706544 11
 1.058497 0.184312 1.242808 11
 3.394670 1.027432 4.422082 11
 3.345389 1.153100 4.498466 11
 2.774451 1.565211 4.339634 11
 3.504400 0.508635 4.013031 11
 2.507634 1.068091 3.575709 11
 3.231197 0.473336 3.704527 11
 3.097116 0.451777 3.548887 11
 2.463426 0.213157 2.676580 11
 2.378560 0.187229 2.565787 11
 1.412666 1.711518 3.124175 11
 2.037129 0.482115 2.519242 11
 3.084625 1.710023 4.794614 11
 3.606921 0.671055 4.277966 11
 3.612837 0.214986 3.827820 11
 2.715691 1.741103 4.456762 11
 2.168581 2.022651 4.191208 11
 1.494926 1.608590 3.103504 11
 1.201904 1.471797 2.673695 11
 2.173393 0.790393 2.963775 11
 1.900319 2.246005 4.146310 11
 1.297043 1.547593 2.844629 11
 1.152123 0.105043 1.257166 11
 1.998749 1.156131 3.154868 11
 2.361111 0.000000 2.361111 11
 2.439367 0.106791 2.546158 11
 2.293406 0.104691 2.398095 11
 2.985061 0.969088 3.954133 11
 3.254211 0.592756 3.846960 11
 1.536053 2.034399 3.570442 11
 2.822122 1.771414 4.593501 11
 1.708324 0.828011 2.536326 11
 2.317063 1.775103 4.092137 11
 1.854079 0.501035 2.355109 11
 1.834179 0.376955 2.211131 11
 2.937374 0.769187 3.706548 11
 2.537799 1.157463 3.695245 11
 3.240989 0.167097 3.408084 11
 3.750000 0.000000 3.750000 11
 3.745319 0.148263 3.893579 11
 1.396836 1.506192 2.903019 11
 2.060268 1.266113 3.326366 11
 2.130070 1.378753 3.508805 11
 3.448032 1.143824 4.591832 11
 2.307020 0.783294 3.090303 11
 1.153550 0.213930 1.367479 11
 2.310028 0.998124 3.308139 11
 0.694444 0.000000 0.694444 11
 2.915656 1.182207 4.097840 11
 3.128230 0.636367 3.764585 11
 1.378407 1.612362 2.990760 11
 1.982508 2.110129 4.092619 11
 2.214086 0.980023 3.194097 11
 3.783251 0.797203 4.580440 11
 2.401212 0.886268 3.287469 11
 2.132638 0.245777 2.378413 11
 2.262382 0.888277 3.150646 11
 1.759653 0.444356 2.204006 11
 1.111111 0.000000 1.111111 11
 2.460347 0.671721 3.132059 11
 1.268035 0.888256 2.156286 11
 3.154818 0.542404 3.697215 11
 1.532904 1.058559 2.591455 11
 2.352547 0.687952 3.040488 11
 1.719057 0.348415 2.067471 11
 3.194444 0.000000 3.194444 11
 2.033170 1.767027 3.800174 11
 2.902155 0.879769 3.781909 11
 2.321094 2.322698 4.643767 11
 2.416507 0.770873 3.187368 11
 1.826902 0.719624 2.546518 11
 2.148384 1.913549 4.061907 11
 2.044647 2.000212 4.044837 11
 2.129306 1.804879 3.934162 11
 2.807389 0.224724 3.032110 11
 3.593017 0.564681 4.157693 11
 2.200007 1.619631 3.819616 11
 2.771380 1.669078 4.440423 11
 1.357789 0.913241 2.271026 11
 2.233232 1.841750 4.074958 11
 2.217895 1.739479 3.957347 11
 3.256537 0.080980 3.337517 11
 1.047968 0.081641 1.129609 11
 2.112085 1.701302 3.813362 11
 1 2 3 
 3 2 4 
 5 6 7 
 8 9 10 
 11 12 13 
 14 15 16 
 17 18 19 
 20 12 11 
 21 22 23 
 24 25 26 
 23 22 27 
 28 29 30 
 28 31 29 
 32 33 34 
 35 36 37 
 38 39 40 
 41 38 40 
 42 3 43 
 44 45 46 
 3 4 43 
 47 48 49 
 45 50 46 
 51 52 53 
 54 53 52 
 8 55 9 
 56 57 58 
 59 32 34 
 60 14 16 
 61 62 63 
 47 64 48 
 65 66 67 
 68 69 70 
 71 70 69 
 72 73 3 
 74 75 76 
 77 78 79 
 80 81 82 
 83 84 85 
 86 3 73 
 51 73 52 
 72 52 73 
 87 88 89 
 90 91 92 
 48 92 91 
 93 94 95 
 96 97 98 
 35 99 100 
 101 102 103 
 104 105 106 
 107 59 34 
 108 109 110 
 17 111 112 
 17 112 18 
 107 113 59 
 54 52 114 
 115 116 117 
 62 118 63 
 119 120 121 
 122 123 124 
 120 125 121 
 126 22 21 
 127 128 129 
 27 22 84 
 130 131 132 
 132 131 133 
 60 10 134 
 17 135 111 
 68 70 49 
 71 136 70 
 137 138 139 
 140 139 138 
 36 141 37 
 142 143 21 
 144 145 146 
 147 87 89 
 72 3 42 
 148 13 75 
 128 149 129 
 86 1 3 
 84 22 85 
 150 106 105 
 151 58 92 
 144 152 145 
 41 153 38 
 154 38 153 
 90 92 58 
 125 105 104 
 155 156 103 
 35 157 36 
 158 67 66 
 47 109 64 
 74 159 75 
 9 160 161 
 10 9 161 
 8 10 162 
 72 163 52 
 164 165 166 
 167 119 168 
 169 82 81 
 170 171 129 
 160 129 171 
 172 47 70 
 167 120 119 
 152 173 145 
 174 175 176 
 177 176 175 
 70 47 49 
 178 103 102 
 142 21 179 
 180 175 181 
 144 146 182 
 183 103 156 
 184 132 133 
 93 185 94 
 186 187 188 
 24 26 189 
 164 166 190 
 191 79 78 
 177 192 113 
 122 193 123 
 194 195 25 
 196 197 198 
 180 181 199 
 200 168 201 
 151 89 88 
 202 16 15 
 48 91 49 
 44 46 203 
 65 98 97 
 204 37 141 
 151 88 58 
 5 205 6 
 54 206 207 
 183 193 208 
 209 208 193 
 20 11 210 
 59 210 11 
 5 211 62 
 212 213 86 
 56 58 88 
 214 168 200 
 196 198 176 
 57 79 58 
 5 7 215 
 5 215 211 
 216 217 218 
 68 91 219 
 220 44 203 
 99 171 100 
 18 173 19 
 213 221 86 
 148 75 222 
 126 21 143 
 10 161 134 
 223 163 224 
 54 207 225 
 27 84 226 
 48 227 92 
 75 13 76 
 228 229 230 
 231 230 229 
 170 129 149 
 122 232 193 
 52 163 114 
 163 233 224 
 234 235 236 
 158 236 235 
 130 132 237 
 238 237 132 
 83 239 84 
 60 16 10 
 68 240 69 
 80 241 81 
 242 243 69 
 71 69 243 
 72 42 233 
 244 233 42 
 90 58 245 
 28 30 246 
 137 247 138 
 248 19 173 
 160 99 161 
 83 161 99 
 20 210 192 
 93 53 225 
 249 40 39 
 109 236 110 
 250 230 185 
 216 218 251 
 194 252 195 
 54 225 53 
 91 253 219 
 254 187 255 
 80 256 195 
 257 195 256 
 167 246 30 
 10 16 162 
 258 259 179 
 260 179 259 
 261 262 82 
 180 263 116 
 264 223 81 
 241 264 81 
 74 265 159 
 266 267 268 
 269 268 267 
 77 270 78 
 94 271 95 
 51 272 73 
 86 73 272 
 273 190 166 
 107 34 274 
 275 274 34 
 263 199 276 
 151 92 227 
 277 76 13 
 118 278 63 
 209 193 232 
 125 104 121 
 47 279 109 
 280 260 281 
 192 210 113 
 140 282 40 
 138 247 283 
 96 284 97 
 24 285 172 
 28 246 286 
 101 246 102 
 287 123 288 
 282 289 40 
 68 49 91 
 24 172 136 
 118 62 211 
 140 138 290 
 275 34 247 
 33 283 247 
 291 121 104 
 35 37 239 
 84 239 37 
 187 197 188 
 248 173 152 
 186 255 187 
 292 280 281 
 293 294 295 
 254 296 187 
 194 297 241 
 101 286 246 
 154 153 298 
 230 299 185 
 273 300 301 
 302 301 300 
 86 221 1 
 234 303 235 
 144 211 215 
 234 236 109 
 304 66 97 
 273 301 78 
 191 78 301 
 148 305 11 
 138 283 290 
 306 290 283 
 167 168 214 
 154 307 38 
 177 308 192 
 142 309 143 
 196 176 310 
 277 13 12 
 108 64 109 
 196 310 311 
 160 312 129 
 313 9 55 
 125 30 29 
 18 112 314 
 184 133 222 
 229 315 15 
 316 298 153 
 20 192 317 
 318 46 50 
 155 103 319 
 174 46 181 
 318 181 46 
 167 214 102 
 178 102 214 
 234 109 279 
 122 267 320 
 244 42 321 
 167 30 120 
 261 322 135 
 65 97 66 
 228 240 219 
 68 219 240 
 122 320 232 
 231 14 323 
 82 262 256 
 231 229 15 
 123 193 288 
 111 135 322 
 33 247 34 
 140 40 139 
 249 139 40 
 4 2 211 
 118 211 2 
 324 6 205 
 223 114 163 
 169 325 322 
 250 185 225 
 93 225 185 
 147 89 326 
 48 64 227 
 83 99 239 
 180 199 263 
 93 95 327 
 150 327 95 
 328 329 330 
 93 327 53 
 275 247 331 
 160 171 99 
 107 332 113 
 101 103 208 
 183 208 103 
 144 333 152 
 35 239 99 
 154 298 334 
 174 203 46 
 125 120 30 
 69 240 335 
 336 286 101 
 127 129 329 
 51 53 327 
 208 336 101 
 119 292 168 
 201 168 292 
 144 182 211 
 148 11 13 
 294 254 255 
 201 292 281 
 302 337 338 
 57 77 79 
 61 205 62 
 5 62 205 
 204 274 339 
 275 339 274 
 142 292 340 
 119 340 292 
 341 198 197 
 342 343 50 
 169 224 344 
 59 11 32 
 150 105 345 
 346 345 105 
 133 347 222 
 26 303 189 
 242 207 206 
 178 214 307 
 170 100 171 
 231 323 299 
 115 317 116 
 165 330 166 
 294 255 295 
 348 323 14 
 346 272 345 
 51 345 272 
 108 349 89 
 194 241 252 
 80 252 241 
 144 215 333 
 313 330 329 
 291 104 350 
 35 100 157 
 351 96 98 
 137 139 352 
 204 141 353 
 18 314 145 
 354 314 112 
 169 344 325 
 137 352 259 
 324 355 268 
 356 95 271 
 115 357 12 
 277 12 357 
 223 264 114 
 204 353 274 
 167 102 246 
 244 344 224 
 126 143 358 
 291 358 143 
 177 113 332 
 273 166 359 
 140 290 282 
 130 282 290 
 242 69 335 
 202 315 300 
 45 342 50 
 177 175 308 
 348 360 323 
 361 338 337 
 346 212 272 
 158 110 236 
 304 110 66 
 362 147 326 
 126 85 22 
 115 117 357 
 126 363 85 
 83 363 134 
 24 364 25 
 194 25 364 
 94 299 323 
 365 311 310 
 151 227 89 
 108 89 227 
 174 198 203 
 130 237 282 
 216 282 237 
 186 295 255 
 244 224 233 
 302 300 315 
 137 331 247 
 241 297 264 
 4 211 182 
 59 113 210 
 366 206 114 
 47 172 285 
 302 229 337 
 228 337 229 
 54 114 206 
 323 360 271 
 184 159 265 
 146 321 43 
 148 222 347 
 202 300 162 
 366 114 264 
 60 367 14 
 348 14 367 
 191 368 245 
 361 337 219 
 228 219 337 
 191 338 368 
 254 369 296 
 146 314 321 
 174 181 175 
 324 205 355 
 370 63 278 
 177 310 176 
 202 15 315 
 27 371 23 
 346 29 31 
 83 134 161 
 250 225 207 
 8 162 300 
 90 253 91 
 291 350 358 
 261 82 322 
 83 85 363 
 196 188 197 
 174 176 198 
 60 134 363 
 269 124 372 
 158 66 110 
 42 43 321 
 60 363 367 
 126 373 363 
 108 110 349 
 304 349 110 
 94 185 299 
 186 157 100 
 244 321 344 
 354 344 321 
 273 359 300 
 8 300 359 
 58 79 245 
 191 245 79 
 341 203 198 
 234 285 189 
 142 280 292 
 86 272 212 
 293 295 149 
 170 149 295 
 125 29 105 
 169 322 82 
 346 31 212 
 169 81 224 
 178 319 103 
 20 317 12 
 115 12 317 
 166 55 359 
 234 279 285 
 150 345 327 
 51 327 345 
 302 338 301 
 204 339 226 
 358 350 360 
 165 328 330 
 228 230 374 
 375 376 63 
 122 124 267 
 269 267 124 
 8 359 55 
 328 127 329 
 370 377 63 
 375 63 377 
 71 243 297 
 366 297 243 
 180 308 175 
 258 23 371 
 89 349 326 
 318 199 181 
 354 321 314 
 375 320 376 
 316 153 251 
 250 374 230 
 24 189 285 
 231 299 230 
 258 331 259 
 137 259 331 
 302 315 229 
 318 50 343 
 231 15 14 
 318 343 276 
 170 378 100 
 72 233 163 
 266 268 355 
 116 317 379 
 87 56 88 
 186 100 378 
 204 226 37 
 366 264 297 
 155 319 334 
 196 311 188 
 36 188 311 
 80 82 256 
 24 136 364 
 70 136 172 
 250 240 374 
 223 224 81 
 28 380 31 
 213 31 380 
 47 285 279 
 250 335 240 
 18 145 173 
 361 219 253 
 146 145 314 
 234 189 303 
 154 334 381 
 228 374 240 
 41 251 153 
 370 278 221 
 1 221 278 
 27 339 371 
 71 382 136 
 183 288 193 
 80 195 252 
 209 232 383 
 375 383 232 
 61 355 205 
 187 296 197 
 341 197 296 
 142 179 280 
 275 371 339 
 186 378 295 
 27 226 339 
 257 256 262 
 270 164 190 
 38 307 200 
 33 305 283 
 306 283 305 
 21 23 179 
 258 179 23 
 180 116 379 
 270 190 78 
 170 295 378 
 356 350 106 
 28 286 380 
 384 380 286 
 41 40 289 
 61 376 355 
 128 293 149 
 107 353 332 
 273 78 190 
 41 289 251 
 216 251 289 
 291 309 121 
 104 106 350 
 306 305 347 
 148 347 305 
 119 121 340 
 186 188 157 
 36 157 188 
 111 322 325 
 365 332 353 
 7 333 215 
 316 251 218 
 369 220 385 
 191 301 338 
 184 222 159 
 284 362 386 
 260 280 179 
 306 131 290 
 130 290 131 
 11 305 32 
 291 143 309 
 346 105 29 
 266 355 376 
 177 332 310 
 33 32 305 
 275 331 371 
 365 310 332 
 194 382 297 
 220 203 385 
 304 386 326 
 362 326 386 
 216 289 282 
 84 37 226 
 341 385 203 
 213 387 221 
 370 221 387 
 318 276 199 
 108 227 64 
 216 237 217 
 238 217 237 
 348 358 360 
 365 353 141 
 266 320 267 
 356 106 95 
 306 347 131 
 133 131 347 
 213 212 31 
 348 373 358 
 178 307 381 
 107 274 353 
 94 323 271 
 150 95 106 
 166 330 55 
 126 358 373 
 61 63 376 
 71 297 382 
 356 271 360 
 214 200 307 
 201 39 200 
 38 200 39 
 249 352 139 
 384 286 336 
 202 162 16 
 284 386 97 
 313 55 330 
 75 159 222 
 258 371 331 
 90 245 368 
 266 376 320 
 129 312 329 
 313 329 312 
 304 326 349 
 194 364 382 
 375 232 320 
 154 381 307 
 361 368 338 
 192 379 317 
 209 336 208 
 260 352 281 
 249 281 352 
 304 97 386 
 178 381 319 
 1 278 2 
 118 2 278 
 36 311 141 
 365 141 311 
 249 39 281 
 201 281 39 
 354 325 344 
 356 360 350 
 260 259 352 
 348 367 373 
 341 296 385 
 366 243 206 
 354 112 325 
 111 325 112 
 160 9 312 
 242 206 243 
 369 385 296 
 363 373 367 
 384 383 377 
 375 377 383 
 180 379 308 
 192 308 379 
 136 382 364 
 384 387 380 
 334 319 381 
 183 156 288 
 287 288 156 
 4 182 43 
 146 43 182 
 213 380 387 
 90 368 253 
 384 377 387 
 370 387 377 
 361 253 368 
 250 207 335 
 384 336 383 
 313 312 9 
 242 335 207 
 209 383 336 
 121 309 340 
 142 340 309 
