TITLE      =  "2D FE Unstructured grid data" 
VARIABLES = "X", "Y", "U", "Dom" 
ZONE T="P1", F=FEPOINT, N= 666 E= 1233  ET=TRIANGLE 
 8.339095 1.891838 10.230927 10
 8.250751 1.812134 10.062875 10
 8.411804 1.768777 10.180575 10
 8.284565 1.715435 9.999991 10
 7.959190 1.754323 9.713493 10
 7.802344 1.756332 9.558651 10
 7.856203 1.616465 9.472645 10
 9.678115 2.511569 12.189683 10
 9.574879 2.350617 11.925487 10
 9.721053 2.365102 12.086148 10
 7.498225 2.583424 10.081618 10
 7.622765 2.702036 10.324786 10
 7.500171 2.698773 10.198929 10
 7.443472 1.942950 9.386399 10
 7.613626 1.986608 9.600217 10
 7.510754 2.063014 9.573749 10
 9.111339 3.475663 12.586991 10
 9.189052 3.630861 12.819893 10
 9.037111 3.620797 12.657888 10
 9.342519 2.234407 11.576927 10
 9.423470 2.119010 11.542480 10
 9.476007 2.231205 11.707206 10
 9.739560 3.850509 13.590059 10
 9.820748 3.979503 13.800249 10
 9.701102 4.005759 13.706853 10
 8.273797 1.127248 9.401043 10
 8.220457 1.287513 9.507963 10
 8.120080 1.172185 9.292245 10
 9.252457 3.526508 12.778958 10
 9.077063 2.646301 11.723357 10
 9.210153 2.670109 11.880257 10
 9.084210 2.774578 11.858772 10
 9.198662 1.198950 10.397616 10
 9.071326 1.130480 10.201805 10
 9.183449 1.047596 10.231042 10
 9.204548 2.809502 12.014042 10
 8.475585 2.287620 10.763198 10
 8.630102 2.254541 10.884626 10
 8.581976 2.361500 10.943463 10
 7.523554 1.866925 9.390452 10
 7.731541 1.104297 8.835823 10
 7.749978 1.235802 8.985756 10
 7.601613 1.214993 8.816586 10
 8.478637 0.790780 9.269419 10
 8.313864 0.866223 9.180085 10
 8.331158 0.720848 9.051998 10
 8.504636 2.169859 10.674489 10
 9.087513 3.339667 12.427167 10
 9.026529 3.270177 12.296696 10
 9.144161 3.207373 12.351518 10
 9.543455 2.810024 12.353476 10
 9.543092 2.953604 12.496696 10
 9.423470 2.865226 12.288690 10
 8.474099 1.616217 10.090313 10
 8.340574 1.625544 9.966107 10
 10.000000 3.472222 13.472222 10
 10.000000 3.611111 13.611111 10
 9.854188 3.516792 13.370983 10
 7.691458 1.625557 9.316996 10
 9.444846 1.334896 10.779742 10
 9.589488 1.426591 11.016083 10
 9.434002 1.466554 10.900556 10
 9.892745 3.641623 13.534369 10
 8.917900 1.739587 10.657479 10
 8.872846 1.871586 10.744428 10
 8.745080 1.755492 10.500566 10
 8.729655 1.919936 10.649580 10
 9.789246 2.448795 12.238038 10
 9.792582 4.131754 13.924333 10
 10.000000 1.527778 11.527778 10
 10.000000 1.666667 11.666667 10
 9.835932 1.589848 11.425782 10
 8.333333 0.000000 8.333333 10
 8.472222 0.000000 8.472222 10
 8.423933 0.166367 8.590296 10
 9.182967 3.350452 12.533410 10
 9.421269 2.339659 11.760924 10
 7.986232 1.946766 9.932983 10
 8.040218 1.849507 9.889706 10
 8.114106 1.990244 10.104341 10
 9.610342 1.305229 10.915576 10
 8.175214 0.985853 9.161057 10
 8.030745 1.035779 9.066508 10
 9.788682 0.868734 10.657414 10
 9.713545 0.964521 10.678068 10
 9.630043 0.812346 10.442391 10
 9.362967 1.582600 10.945571 10
 9.205578 1.586031 10.791610 10
 9.297521 1.444892 10.742409 10
 9.132903 1.455321 10.588221 10
 8.578965 1.700395 10.279353 10
 8.587470 1.848912 10.436378 10
 10.000000 1.805556 11.805556 10
 9.864987 1.903467 11.768459 10
 9.873762 1.734081 11.607850 10
 8.194445 0.000000 8.194445 10
 8.260237 0.127251 8.387495 10
 8.090914 0.133506 8.224416 10
 7.620184 2.556905 10.177072 10
 8.801836 1.218172 10.020011 10
 8.738236 1.350614 10.088854 10
 8.659156 1.181875 9.841037 10
 9.429109 2.581689 12.010790 10
 9.342649 2.727676 12.070319 10
 9.300473 2.592718 11.893189 10
 9.331212 0.311474 9.642688 10
 9.391139 0.467381 9.858524 10
 9.270160 0.442229 9.712390 10
 8.289977 3.084625 11.374587 10
 8.203995 3.214273 11.418254 10
 8.182261 3.044488 11.226731 10
 7.491823 1.669027 9.160825 10
 7.420715 1.784334 9.205029 10
 7.342836 1.639057 8.981861 10
 7.441488 1.573872 9.015341 10
 7.734658 2.641909 10.376552 10
 8.457720 1.950579 10.408295 10
 8.611111 0.000000 8.611111 10
 8.713051 0.149972 8.863022 10
 8.541667 0.099357 8.641029 10
 10.000000 1.388889 11.388889 10
 9.897661 1.451688 11.349345 10
 9.849624 1.291612 11.141242 10
 7.753994 1.900319 9.654288 10
 7.777062 2.059184 9.836224 10
 9.668290 1.618358 11.286641 10
 9.513515 1.559231 11.072749 10
 9.691791 1.495906 11.187696 10
 8.980727 1.969311 10.950030 10
 9.107937 2.061746 11.169681 10
 8.974391 2.102736 11.077120 10
 8.387761 0.339635 8.727395 10
 8.240078 0.418746 8.658817 10
 8.276791 0.268489 8.545278 10
 10.000000 0.833333 10.833333 10
 9.878537 0.952749 10.831285 10
 9.881005 0.771428 10.652430 10
 9.166667 0.000000 9.166667 10
 9.228572 0.118995 9.347568 10
 9.047251 0.121463 9.168722 10
 8.461967 0.900401 9.362363 10
 9.570928 2.643228 12.214154 10
 9.666690 2.753694 12.420386 10
 7.330197 1.864834 9.195009 10
 8.512171 3.029562 11.541713 10
 8.501996 2.902117 11.404093 10
 8.635534 3.000477 11.635987 10
 9.482075 0.375573 9.857653 10
 8.312034 2.436220 10.748241 10
 8.406985 2.544760 10.951731 10
 8.237949 2.582546 10.820485 10
 8.602221 3.469974 12.072175 10
 8.556871 3.586126 12.142983 10
 8.437001 3.520203 11.957184 10
 8.632577 2.858719 11.491282 10
 8.669917 0.579927 9.249841 10
 8.757948 0.693155 9.451110 10
 8.605878 0.699880 9.305761 10
 8.874151 2.322065 11.196209 10
 8.764855 2.203482 10.968329 10
 8.916048 2.203379 11.119419 10
 9.287970 3.215673 12.503632 10
 8.461940 3.408179 11.870098 10
 9.703095 1.224287 10.927389 10
 9.545672 1.202538 10.748205 10
 9.670074 1.086883 10.756959 10
 8.419788 1.204282 9.624074 10
 8.332795 1.276246 9.609037 10
 9.331159 3.351627 12.682780 10
 8.841307 1.604082 10.445394 10
 8.569086 0.210360 8.779449 10
 8.508806 0.309166 8.817973 10
 9.446910 0.269519 9.716432 10
 9.595981 0.268505 9.864485 10
 9.454902 3.848161 13.303048 10
 9.314283 3.848248 13.162515 10
 9.434791 3.702993 13.137772 10
 9.291065 3.714597 13.005643 10
 8.146174 1.859522 10.005692 10
 8.761953 0.916679 9.678633 10
 8.900838 0.965835 9.866680 10
 8.822564 1.031494 9.854065 10
 8.740061 2.530812 11.270863 10
 8.666847 2.437385 11.104219 10
 8.841598 2.440845 11.282432 10
 7.639262 1.456599 9.095833 10
 7.763267 1.366998 9.130239 10
 7.753578 1.515011 9.268568 10
 7.919614 2.303614 10.223209 10
 7.874130 2.467033 10.341149 10
 7.794896 2.314073 10.108955 10
 7.725644 2.414804 10.140429 10
 8.742489 2.344617 11.087086 10
 9.192173 2.523767 11.715931 10
 10.000000 2.500000 12.500000 10
 10.000000 2.638889 12.638889 10
 9.843488 2.564197 12.407682 10
 7.949999 0.693922 8.643912 10
 8.057818 0.785259 8.843068 10
 7.934078 0.862031 8.796101 10
 8.652964 3.332888 11.985827 10
 8.745855 3.392673 12.138507 10
 8.746016 3.500659 12.246659 10
 8.101618 0.647294 8.748909 10
 9.438756 2.449300 11.888050 10
 8.432035 1.083317 9.515358 10
 9.510171 0.191461 9.701632 10
 9.188523 1.345006 10.533536 10
 8.024765 1.279948 9.304697 10
 7.894146 1.289960 9.184084 10
 7.976189 1.160414 9.136582 10
 8.920476 3.021576 11.942037 10
 8.855284 3.136485 11.991750 10
 8.782388 3.023703 11.806081 10
 8.719112 3.129190 11.848278 10
 9.449391 3.039363 12.488752 10
 8.917796 2.615546 11.533335 10
 9.044215 2.523352 11.567566 10
 9.172133 0.340190 9.512323 10
 8.902877 0.859163 9.762040 10
 8.103052 1.556893 9.659937 10
 8.175099 1.426256 9.601347 10
 8.266163 1.530432 9.796585 10
 7.809556 0.964260 8.773795 10
 7.810327 0.850372 8.660684 10
 9.884130 3.862222 13.746348 10
 8.014078 0.559529 8.573598 10
 7.310883 3.038144 10.349010 10
 7.393803 2.920684 10.314468 10
 7.442627 3.070481 10.513098 10
 9.587537 0.409535 9.997079 10
 8.750000 0.000000 8.750000 10
 10.000000 1.250000 11.250000 10
 8.927892 3.522048 12.449922 10
 8.906816 3.683397 12.590198 10
 9.902959 2.703294 12.606255 10
 9.655199 0.142591 9.797791 10
 9.735977 0.293416 10.029393 10
 8.303676 3.298969 11.602627 10
 8.225669 3.402265 11.627915 10
 8.119693 3.335945 11.455618 10
 8.865435 0.507339 9.372780 10
 9.008142 0.563142 9.571286 10
 8.853737 0.619008 9.472743 10
 8.104742 3.126991 11.231714 10
 9.803100 0.196901 9.999994 10
 8.838311 2.114829 10.953135 10
 9.788435 1.428417 11.216847 10
 7.660153 1.319150 8.979279 10
 8.018033 1.414853 9.432870 10
 8.393827 2.992672 11.386484 10
 8.366385 2.871074 11.237441 10
 9.089385 0.963276 10.052669 10
 7.670127 1.770020 9.440122 10
 7.518536 2.990162 10.508682 10
 9.595148 3.911410 13.506540 10
 9.805383 0.494141 10.299521 10
 9.708761 0.426389 10.135147 10
 9.861273 0.354120 10.215394 10
 8.138584 2.715771 10.854339 10
 8.073783 2.616538 10.690306 10
 9.661263 2.881736 12.542996 10
 9.587098 0.955972 10.543067 10
 8.469637 0.651486 9.121123 10
 8.516606 0.998214 9.514817 10
 8.661506 1.034647 9.696150 10
 8.562360 1.096392 9.658748 10
 8.581209 0.914497 9.495707 10
 7.949980 0.968231 8.918195 10
 9.697988 2.218618 11.916609 10
 9.586776 2.199703 11.786481 10
 8.693430 1.612268 10.305696 10
 8.933568 0.705132 9.638702 10
 10.000000 2.083333 12.083333 10
 10.000000 2.222222 12.222222 10
 9.869110 2.155257 12.024367 10
 9.700066 0.677595 10.377660 10
 9.550171 0.644156 10.194323 10
 9.701771 0.555341 10.257113 10
 9.589083 0.519273 10.108353 10
 9.538357 2.507281 12.045643 10
 8.576491 2.513322 11.089793 10
 8.642417 2.630529 11.272940 10
 8.584172 1.311510 9.895683 10
 8.248993 0.587877 8.836864 10
 8.138595 0.527782 8.666367 10
 9.795480 2.705582 12.501060 10
 9.691846 2.643283 12.335125 10
 9.298770 1.322060 10.620837 10
 8.168266 0.324664 8.492921 10
 8.117494 1.321646 9.439124 10
 9.896333 4.076138 13.972463 10
 9.731742 3.404548 13.136277 10
 9.595600 3.461062 13.056659 10
 9.617782 3.328546 12.946324 10
 9.484823 3.377062 12.861876 10
 8.206525 0.729662 8.936180 10
 8.809734 0.800232 9.609974 10
 8.646532 0.810924 9.457464 10
 8.365952 2.673563 11.039497 10
 7.846552 0.756488 8.603023 10
 8.334949 3.194570 11.529503 10
 8.962798 2.763805 11.726592 10
 7.850990 1.168013 9.018982 10
 9.596484 3.754119 13.350587 10
 9.544909 3.601026 13.145919 10
 9.696916 3.536094 13.232995 10
 8.994673 1.019990 10.014665 10
 8.215405 1.627476 9.842877 10
 7.707490 2.529548 10.237020 10
 8.126678 2.518943 10.645608 10
 8.695585 3.615175 12.310735 10
 9.128722 1.940146 11.068861 10
 9.774709 2.930579 12.705291 10
 9.830764 3.057855 12.888618 10
 9.671414 3.023718 12.695131 10
 7.983636 2.709339 10.692962 10
 9.290168 1.126688 10.416862 10
 8.034971 2.803290 10.838239 10
 9.905188 2.023133 11.928318 10
 9.662862 0.349809 10.012669 10
 9.755339 1.802902 11.558241 10
 8.182172 0.226299 8.408472 10
 9.370563 3.484943 12.855498 10
 8.040907 2.404523 10.445418 10
 9.002016 1.284990 10.287009 10
 8.919353 1.130524 10.049879 10
 9.642103 3.181105 12.823201 10
 9.752715 3.139652 12.892362 10
 9.735064 3.290539 13.025599 10
 7.856003 1.453294 9.309278 10
 9.659159 3.651117 13.310261 10
 8.547351 2.765906 11.313237 10
 8.666471 2.749717 11.416173 10
 9.518946 2.138441 11.657383 10
 9.867215 3.358270 13.225478 10
 9.135469 0.213983 9.349460 10
 9.338692 2.983404 12.322088 10
 7.897685 1.866148 9.763814 10
 8.990734 1.636586 10.627319 10
 9.061483 1.732573 10.794060 10
 7.413507 2.305499 9.718985 10
 7.563960 2.329350 9.893282 10
 7.501750 2.447927 9.949653 10
 8.190020 2.426300 10.616307 10
 8.122610 2.331050 10.453650 10
 9.252267 3.424379 12.676637 10
 8.124784 1.717798 9.842564 10
 10.000000 0.555556 10.555556 10
 10.000000 0.694444 10.694444 10
 9.846493 0.624231 10.470725 10
 9.305555 0.000000 9.305555 10
 9.444445 0.000000 9.444445 10
 9.376101 0.152226 9.528327 10
 8.071854 0.420917 8.492758 10
 8.515110 2.065522 10.580626 10
 8.402747 2.097991 10.500729 10
 8.499480 2.649626 11.149096 10
 9.587584 4.065104 13.652672 10
 9.630780 4.212965 13.843740 10
 9.477521 4.131865 13.609376 10
 7.994965 1.638687 9.633624 10
 8.486609 3.217386 11.703975 10
 8.413008 3.308919 11.721907 10
 9.451973 1.710454 11.162433 10
 8.167719 0.849068 9.016780 10
 10.000000 3.333333 13.333333 10
 8.578949 3.131859 11.710784 10
 8.421050 3.111072 11.532100 10
 7.965651 1.536039 9.501676 10
 8.375373 0.580966 8.956341 10
 8.335576 1.998213 10.333780 10
 9.770711 0.759233 10.529948 10
 8.822588 3.578330 12.400906 10
 8.750494 1.494737 10.245224 10
 8.623773 1.464182 10.087948 10
 9.019844 1.846440 10.866279 10
 9.308034 2.864636 12.172666 10
 7.823123 2.586313 10.409426 10
 9.719865 1.341398 11.061263 10
 9.000507 3.767156 12.767648 10
 9.386144 1.831876 11.218017 10
 9.426682 1.973511 11.400187 10
 9.272293 1.925536 11.197829 10
 9.312862 2.071491 11.384355 10
 7.893880 1.056013 8.949878 10
 8.295401 1.002043 9.297445 10
 8.044533 2.262336 10.306859 10
 8.576487 1.580054 10.156534 10
 9.529906 1.061277 10.591184 10
 9.431851 0.943857 10.375708 10
 9.414834 1.117136 10.531967 10
 8.542651 3.328246 11.870880 10
 9.463327 2.712473 12.175795 10
 9.284926 1.728074 11.013004 10
 8.558815 0.590910 9.149728 10
 8.866799 1.345885 10.212683 10
 8.773729 0.568243 9.341967 10
 9.059108 1.544757 10.603863 10
 9.100688 1.645534 10.746229 10
 8.512167 1.507207 10.019370 10
 9.285225 0.878031 10.163259 10
 9.180266 0.778876 9.959147 10
 9.297025 0.717826 10.014846 10
 9.756651 1.691617 11.448269 10
 7.391330 2.057900 9.449203 10
 7.288234 2.111815 9.400024 10
 7.314125 1.977033 9.291132 10
 8.450005 2.413283 10.863276 10
 8.347806 0.472575 8.820380 10
 9.007729 3.134118 12.141841 10
 9.909224 0.487143 10.396369 10
 9.513889 0.086995 9.600889 10
 9.681722 4.117604 13.799314 10
 9.726391 3.722780 13.449163 10
 7.554602 1.571620 9.126203 10
 9.169523 0.630066 9.799587 10
 9.150927 0.492288 9.643212 10
 9.290156 0.592840 9.882994 10
 9.470921 0.786546 10.257464 10
 9.167747 1.818970 10.986715 10
 8.897501 1.244893 10.142398 10
 10.000000 0.277778 10.277778 10
 10.000000 0.416667 10.416667 10
 9.583333 0.000000 9.583333 10
 9.722222 0.000000 9.722222 10
 9.567870 1.672118 11.239985 10
 10.000000 3.055556 13.055556 10
 9.896259 2.958136 12.854392 10
 8.758950 1.115047 9.874000 10
 9.024781 2.865752 11.890528 10
 8.925119 2.901931 11.827042 10
 8.856956 2.819974 11.676916 10
 7.653986 2.107674 9.761638 10
 9.009155 4.033360 13.042491 10
 8.993105 3.903397 12.896478 10
 9.088025 3.957970 13.045978 10
 8.592486 0.390641 8.983125 10
 8.721608 0.441784 9.163387 10
 8.581511 0.496440 9.077943 10
 8.860346 1.458757 10.319102 10
 7.735209 2.199541 9.934729 10
 7.859236 2.189422 10.048644 10
 7.920929 2.087509 10.008423 10
 7.879289 3.139514 11.018785 10
 7.888206 3.296390 11.184591 10
 7.778308 3.199289 10.977583 10
 7.632497 1.874329 9.506806 10
 10.000000 1.944444 11.944444 10
 8.055555 0.000000 8.055555 10
 9.097796 2.162515 11.260308 10
 7.421768 2.171318 9.593062 10
 9.197598 3.915571 13.113148 10
 9.294507 4.016786 13.311280 10
 8.605382 1.994545 10.599920 10
 9.791840 2.029161 11.821002 10
 9.267573 3.080878 12.348446 10
 9.146122 3.040666 12.186779 10
 9.486578 3.959123 13.445682 10
 9.104176 3.726347 12.830503 10
 8.227109 1.928613 10.155709 10
 9.389493 3.941152 13.330628 10
 7.651947 2.850164 10.502101 10
 7.775370 2.930329 10.705684 10
 7.640660 2.984742 10.625383 10
 7.510874 2.241171 9.752024 10
 7.462380 1.464749 8.927102 10
 7.538618 1.349015 8.887608 10
 7.777778 0.000000 7.777778 10
 7.874085 0.115023 7.989107 10
 7.724136 0.155138 7.879270 10
 9.440208 1.223186 10.663396 10
 8.860596 2.725816 11.586402 10
 8.754113 2.811574 11.565668 10
 8.913311 3.256656 12.169950 10
 9.179708 0.910307 10.090020 10
 7.363740 2.410020 9.773744 10
 10.000000 0.972222 10.972222 10
 9.027778 0.000000 9.027778 10
 9.347087 1.226026 10.573116 10
 8.340025 2.314593 10.654613 10
 7.941402 2.601359 10.542747 10
 8.011380 2.521679 10.533051 10
 9.296770 1.003319 10.300098 10
 7.971704 3.223093 11.194777 10
 8.770854 3.259098 12.029927 10
 8.721547 2.928189 11.649724 10
 7.759981 2.779103 10.539070 10
 7.896862 2.826248 10.723092 10
 8.992749 2.420148 11.412889 10
 8.644530 3.228079 11.872595 10
 7.490658 2.861258 10.351901 10
 7.440787 2.773346 10.214113 10
 9.851737 3.745319 13.597052 10
 8.773985 2.662411 11.436379 10
 10.000000 2.777778 12.777778 10
 10.000000 2.916667 12.916667 10
 9.875825 2.830022 12.705850 10
 9.894982 3.155647 13.050630 10
 8.996217 1.414830 10.411055 10
 8.264857 2.953717 11.218559 10
 9.045720 0.407763 9.453485 10
 9.037647 0.280749 9.318394 10
 8.995839 0.799050 9.794896 10
 9.214856 2.026828 11.241681 10
 9.644619 2.075948 11.720565 10
 9.705174 1.928411 11.633580 10
 9.574646 1.942917 11.517563 10
 7.925094 0.350582 8.275664 10
 8.070436 0.288870 8.359309 10
 7.973966 0.206973 8.180933 10
 9.137074 4.064754 13.201811 10
 7.781382 0.302012 8.083386 10
 7.855732 0.225946 8.081676 10
 10.000000 3.750000 13.750000 10
 9.397194 4.033442 13.430618 10
 8.660844 0.299258 8.960095 10
 8.787876 0.304244 9.092115 10
 9.364137 0.804001 10.168137 10
 9.815688 1.058497 10.874184 10
 8.941504 0.184312 9.125819 10
 8.972569 3.394670 12.367223 10
 8.846900 3.345389 12.192269 10
 7.542164 1.765435 9.307576 10
 9.063309 0.711231 9.774547 10
 8.942284 0.437769 9.380059 10
 7.730455 3.088658 10.819100 10
 7.657597 3.226219 10.883804 10
 7.582279 3.102443 10.684711 10
 8.434777 2.774361 11.209117 10
 9.491364 3.504400 12.995752 10
 8.931909 2.507634 11.439530 10
 9.526664 3.231197 12.757854 10
 9.097701 3.842282 12.939967 10
 9.411857 0.588144 10.000000 10
 9.490500 0.513241 10.003741 10
 9.548377 3.097301 12.645670 10
 8.288482 1.412666 9.701139 10
 9.517835 2.037037 11.554873 10
 10.000000 3.888889 13.888889 10
 9.328944 3.606921 12.935848 10
 9.785014 3.612837 13.397851 10
 8.258897 2.715691 10.974569 10
 8.395570 0.967330 9.362897 10
 7.977349 2.168581 10.145917 10
 8.391410 1.494926 9.886329 10
 7.486845 3.218712 10.705544 10
 8.528203 1.201904 9.730103 10
 9.209607 2.173393 11.382998 10
 7.916667 0.000000 7.916667 10
 7.422709 2.508872 9.931562 10
 7.377967 2.654471 10.032413 10
 10.000000 0.000000 10.000000 10
 10.000000 0.138889 10.138889 10
 9.885746 0.114254 9.999996 10
 9.861111 0.000000 9.861111 10
 9.523350 0.877952 10.401302 10
 8.452407 1.297043 9.749447 10
 9.894957 1.152123 11.047082 10
 8.848654 0.104976 8.953631 10
 8.843869 1.998749 10.842612 10
 10.000000 2.361111 12.361111 10
 9.892401 2.436659 12.329064 10
 9.895423 2.288904 12.184327 10
 9.030814 2.984897 12.015696 10
 9.407244 3.254211 12.661452 10
 8.228585 2.822122 11.050692 10
 9.171988 1.708324 10.880309 10
 8.224897 2.317063 10.541953 10
 9.407576 0.694410 10.101984 10
 7.857933 2.691714 10.549630 10
 9.498965 1.854079 11.353043 10
 9.623045 1.834179 11.457217 10
 9.248697 0.227374 9.476068 10
 7.595392 1.680493 9.275863 10
 9.230813 2.937374 12.168175 10
 8.842537 2.537799 11.380322 10
 9.832903 3.240989 13.073891 10
 8.493809 1.396836 9.890635 10
 8.733887 2.060268 10.794143 10
 8.621247 2.130070 10.751307 10
 8.856175 3.448032 12.304188 10
 8.052592 0.914370 8.966948 10
 7.845520 3.024067 10.869572 10
 9.758629 2.819886 12.578521 10
 9.216706 2.307020 11.523724 10
 7.322326 2.547752 9.870055 10
 9.786070 1.153550 10.939622 10
 8.846450 0.213930 9.060377 10
 9.811171 2.366446 12.177620 10
 7.312423 2.260671 9.573069 10
 9.910024 0.216388 10.126412 10
 9.780123 0.091278 9.871399 10
 9.091424 0.829501 9.920928 10
 7.891593 2.942861 10.834438 10
 9.001876 2.310028 11.311900 10
 8.817172 2.915550 11.732706 10
 9.202797 3.783251 12.986022 10
 9.363633 3.128230 12.491855 10
 8.387638 1.378407 9.766037 10
 7.889970 1.982472 9.872423 10
 9.019978 2.214086 11.234053 10
 7.549607 2.157194 9.706786 10
 9.113731 2.401212 11.514937 10
 9.752971 2.126009 11.878983 10
 9.111723 2.262382 11.374104 10
 9.555644 1.759653 11.315293 10
 8.920775 0.319502 9.240276 10
 8.888889 0.000000 8.888889 10
 10.000000 1.111111 11.111111 10
 7.569988 2.907280 10.477256 10
 10.000000 4.027778 14.027779 10
 10.000000 4.166667 14.166667 10
 7.995681 2.910770 10.906429 10
 9.328279 2.460347 11.788620 10
 9.111744 1.268035 10.379778 10
 9.457596 3.154818 12.612398 10
 8.941441 1.532904 10.474340 10
 8.120616 2.909976 11.030572 10
 9.312048 2.352547 11.664584 10
 9.651586 1.719057 11.370645 10
 10.000000 3.194444 13.194444 10
 8.079580 3.432795 11.512356 10
 8.232973 2.033170 10.266133 10
 9.120214 2.902128 12.022333 10
 8.467130 0.526815 8.993939 10
 7.954675 0.465097 8.419765 10
 7.677302 2.321094 9.998374 10
 9.229127 2.416507 11.645626 10
 7.830323 0.394099 8.224413 10
 7.622062 2.226642 9.848684 10
 8.844203 0.402869 9.247076 10
 7.944530 3.022892 10.967406 10
 8.004569 3.123369 11.127919 10
 8.473415 0.416624 8.890039 10
 7.794248 0.634852 8.429083 10
 9.280375 1.826902 11.107277 10
 8.086451 2.148384 10.234831 10
 7.999796 2.044643 10.044419 10
 8.195121 2.129306 10.324412 10
 8.059409 3.021968 11.081363 10
 7.849445 0.496616 8.346048 10
 7.904535 0.585217 8.489734 10
 8.130690 2.812789 10.943463 10
 9.791131 2.269420 12.060554 10
 8.075289 3.231018 11.306289 10
 9.435319 3.593017 13.028326 10
 8.380368 2.200007 10.580367 10
 8.330919 2.771362 11.102259 10
 9.086759 1.357789 10.444547 10
 9.896297 4.188107 14.084408 10
 8.158250 2.233232 10.391462 10
 7.983811 0.092829 8.076647 10
 7.950570 3.409978 11.360540 10
 8.019016 3.320478 11.339485 10
 8.260521 2.217895 10.478408 10
 7.622042 2.442154 10.064174 10
 9.919020 3.256537 13.175553 10
 9.918360 1.047968 10.966327 10
 8.952032 0.081641 9.033677 10
 7.710315 0.439928 8.150233 10
 9.926762 3.958333 13.885093 10
 8.348223 3.406164 11.754372 10
 8.995237 0.904912 9.900152 10
 7.549659 2.792630 10.342267 10
 8.298698 2.112085 10.410776 10
 1 2 3 
 2 4 3 
 5 6 7 
 8 9 10 
 11 12 13 
 14 15 16 
 17 18 19 
 20 21 22 
 23 24 25 
 26 27 28 
 29 18 17 
 30 31 32 
 33 34 35 
 32 31 36 
 37 38 39 
 40 15 14 
 41 42 43 
 44 45 46 
 37 47 38 
 48 49 50 
 51 52 53 
 54 3 55 
 56 57 58 
 55 3 4 
 59 7 6 
 60 61 62 
 57 63 58 
 64 65 66 
 67 66 65 
 8 10 68 
 69 25 24 
 70 71 72 
 73 74 75 
 76 48 50 
 77 20 22 
 78 79 80 
 60 81 61 
 26 28 82 
 83 82 28 
 84 85 86 
 87 88 89 
 90 89 88 
 91 92 3 
 93 94 95 
 96 97 98 
 99 12 11 
 100 101 102 
 103 104 105 
 106 107 108 
 109 110 111 
 112 113 114 
 115 112 114 
 116 12 99 
 117 3 92 
 67 92 66 
 91 66 92 
 118 119 120 
 121 122 123 
 124 125 15 
 126 127 128 
 61 128 127 
 129 130 131 
 132 133 134 
 135 136 137 
 138 139 140 
 44 141 45 
 51 142 143 
 144 113 14 
 145 146 147 
 106 148 107 
 149 150 151 
 152 153 154 
 146 155 147 
 156 157 158 
 159 160 161 
 162 76 50 
 163 152 154 
 164 165 166 
 26 167 168 
 26 168 27 
 162 169 76 
 64 66 170 
 171 172 75 
 148 173 174 
 175 176 177 
 178 177 176 
 79 179 80 
 180 181 182 
 183 184 185 
 186 187 188 
 132 75 172 
 189 190 191 
 192 191 190 
 184 193 185 
 194 31 30 
 195 196 197 
 36 31 104 
 198 199 200 
 201 202 152 
 152 202 203 
 198 204 199 
 77 9 205 
 26 206 167 
 87 89 62 
 207 174 173 
 90 208 89 
 209 210 211 
 212 213 214 
 215 214 213 
 52 216 53 
 217 218 30 
 106 108 219 
 180 220 181 
 221 222 223 
 200 224 225 
 23 226 24 
 198 227 204 
 228 229 230 
 148 174 231 
 118 232 119 
 233 121 123 
 91 3 54 
 234 19 235 
 196 236 197 
 237 238 174 
 117 1 3 
 239 240 110 
 241 110 240 
 242 243 244 
 104 31 105 
 245 111 110 
 246 238 237 
 247 161 160 
 248 72 128 
 249 187 186 
 14 113 40 
 221 250 222 
 145 251 146 
 252 146 251 
 35 34 253 
 126 128 72 
 193 160 159 
 59 6 254 
 255 230 229 
 23 25 256 
 257 258 259 
 259 258 238 
 260 261 151 
 51 262 52 
 263 86 85 
 44 264 158 
 60 165 81 
 265 266 267 
 268 266 265 
 269 224 200 
 270 9 271 
 91 272 66 
 273 244 243 
 274 275 276 
 277 278 279 
 280 279 278 
 8 281 9 
 106 173 148 
 282 183 283 
 284 102 101 
 285 204 286 
 287 288 197 
 8 197 288 
 270 10 9 
 289 60 89 
 282 184 183 
 133 290 134 
 250 291 222 
 69 24 292 
 293 294 295 
 296 295 294 
 89 60 62 
 285 297 204 
 157 298 299 
 300 151 150 
 198 200 301 
 109 302 110 
 217 30 303 
 304 211 210 
 175 305 256 
 306 294 307 
 308 253 34 
 221 223 309 
 116 99 310 
 311 151 261 
 312 152 203 
 129 313 130 
 192 190 310 
 314 315 316 
 180 299 298 
 23 256 305 
 261 260 317 
 33 35 318 
 317 260 319 
 274 276 320 
 321 231 174 
 322 95 94 
 323 98 97 
 296 324 169 
 189 325 190 
 326 327 34 
 328 329 330 
 59 188 7 
 331 7 188 
 180 182 266 
 306 307 332 
 333 283 334 
 171 120 119 
 248 123 122 
 335 22 21 
 61 127 62 
 56 58 336 
 84 137 136 
 337 140 139 
 338 53 216 
 171 75 120 
 248 122 72 
 5 339 6 
 273 298 157 
 64 340 341 
 342 343 344 
 311 325 345 
 346 345 325 
 29 17 347 
 76 347 17 
 5 348 79 
 349 350 351 
 352 353 354 
 355 133 286 
 285 286 133 
 356 357 117 
 70 72 122 
 74 120 75 
 358 283 333 
 359 360 361 
 328 330 295 
 71 95 72 
 73 75 97 
 5 7 362 
 5 362 348 
 363 364 302 
 87 127 365 
 366 45 82 
 367 56 336 
 145 368 369 
 363 369 368 
 142 288 143 
 331 370 7 
 27 291 28 
 285 371 46 
 357 372 117 
 84 86 373 
 234 235 374 
 194 30 218 
 9 281 205 
 375 272 376 
 64 341 377 
 36 104 378 
 273 157 244 
 190 379 310 
 61 380 128 
 235 19 381 
 382 383 384 
 385 384 383 
 331 188 187 
 210 187 42 
 287 197 236 
 304 41 386 
 224 386 41 
 26 387 206 
 304 210 42 
 189 388 325 
 297 45 366 
 46 45 297 
 66 272 170 
 272 389 376 
 263 390 391 
 392 391 390 
 249 43 42 
 163 393 152 
 201 152 393 
 103 394 104 
 77 22 9 
 87 395 88 
 158 264 396 
 257 351 279 
 277 279 351 
 100 397 101 
 156 398 157 
 90 88 399 
 400 399 88 
 91 54 389 
 401 389 54 
 402 403 404 
 126 72 405 
 132 134 75 
 406 407 408 
 37 39 409 
 132 410 133 
 212 411 213 
 349 351 412 
 353 413 354 
 209 28 291 
 69 414 25 
 23 305 415 
 8 142 281 
 103 281 142 
 59 416 186 
 29 347 324 
 129 65 377 
 417 418 419 
 108 419 418 
 165 390 166 
 277 86 278 
 420 278 86 
 421 384 313 
 363 302 369 
 124 254 6 
 326 422 327 
 285 133 410 
 423 424 259 
 425 426 237 
 64 377 65 
 127 427 365 
 46 371 264 
 428 315 429 
 100 430 327 
 182 327 430 
 282 409 39 
 180 266 268 
 9 22 271 
 431 432 303 
 433 303 432 
 15 125 434 
 157 299 158 
 273 220 298 
 267 266 102 
 435 436 437 
 355 290 133 
 438 439 440 
 306 305 177 
 175 177 305 
 397 441 101 
 441 375 101 
 442 125 443 
 444 443 125 
 445 446 447 
 124 15 448 
 93 449 94 
 450 96 98 
 130 451 131 
 406 452 407 
 453 176 454 
 117 92 455 
 67 455 92 
 456 320 276 
 162 50 457 
 458 457 50 
 359 361 459 
 305 332 415 
 248 128 380 
 460 381 19 
 82 45 387 
 179 461 80 
 176 462 454 
 463 464 465 
 346 325 388 
 342 466 343 
 467 186 416 
 44 299 268 
 156 440 439 
 193 159 185 
 467 468 186 
 249 186 468 
 469 470 471 
 60 472 165 
 473 433 474 
 324 347 169 
 44 46 264 
 213 411 475 
 402 476 403 
 342 344 477 
 135 478 136 
 479 138 140 
 285 46 297 
 33 480 289 
 366 199 297 
 204 297 199 
 37 409 481 
 149 409 150 
 482 190 483 
 87 62 127 
 33 289 208 
 179 79 348 
 35 476 484 
 402 484 476 
 485 446 445 
 215 213 486 
 458 50 411 
 49 475 411 
 257 412 351 
 207 354 413 
 487 147 155 
 463 488 464 
 489 464 488 
 59 186 188 
 490 185 159 
 51 53 394 
 104 394 53 
 331 210 250 
 209 250 210 
 363 491 393 
 492 229 493 
 40 448 15 
 315 329 316 
 209 211 28 
 209 291 250 
 314 429 315 
 23 494 226 
 495 473 474 
 496 497 498 
 428 499 315 
 326 500 397 
 180 298 220 
 149 481 409 
 252 251 501 
 502 503 219 
 337 219 503 
 273 504 220 
 384 505 313 
 456 506 507 
 508 507 506 
 355 509 510 
 511 510 509 
 117 372 1 
 255 229 492 
 44 158 299 
 453 512 437 
 435 437 512 
 513 471 514 
 515 226 494 
 8 68 197 
 392 484 391 
 402 391 484 
 516 459 361 
 171 119 517 
 518 517 119 
 221 348 362 
 392 390 165 
 420 391 519 
 520 85 136 
 521 140 503 
 323 510 98 
 511 98 510 
 456 507 94 
 322 94 507 
 438 517 439 
 234 522 17 
 213 475 486 
 308 34 327 
 523 486 475 
 40 113 524 
 417 525 243 
 273 243 525 
 242 526 243 
 282 283 358 
 527 528 529 
 402 519 391 
 252 530 146 
 296 531 324 
 217 532 218 
 417 243 418 
 502 418 243 
 328 295 533 
 460 19 18 
 460 534 381 
 164 81 165 
 535 536 278 
 328 533 537 
 323 134 290 
 535 419 107 
 108 107 419 
 402 404 519 
 453 454 512 
 308 327 181 
 350 137 351 
 352 354 139 
 193 39 38 
 417 404 403 
 27 168 538 
 312 203 374 
 425 237 413 
 424 412 259 
 215 147 214 
 383 539 21 
 109 501 251 
 515 540 226 
 29 324 541 
 542 58 63 
 260 151 543 
 544 206 387 
 293 58 307 
 542 307 58 
 300 150 358 
 282 358 150 
 392 165 472 
 189 443 545 
 401 54 546 
 547 529 528 
 487 214 147 
 182 181 327 
 312 153 152 
 282 39 184 
 116 488 12 
 359 459 256 
 267 548 206 
 84 136 85 
 337 503 140 
 417 419 404 
 207 413 237 
 257 259 412 
 382 395 365 
 87 365 395 
 189 545 388 
 385 20 549 
 102 266 430 
 385 383 21 
 190 325 483 
 167 206 548 
 469 550 470 
 551 11 552 
 49 411 50 
 224 269 386 
 553 554 555 
 553 555 556 
 106 354 173 
 207 173 354 
 179 348 2 
 4 2 348 
 124 6 339 
 375 170 272 
 359 256 25 
 420 557 391 
 277 373 86 
 284 558 548 
 129 377 313 
 421 313 377 
 233 123 559 
 232 560 119 
 61 81 380 
 355 286 227 
 204 227 286 
 103 142 394 
 306 332 305 
 129 131 561 
 247 561 131 
 363 368 491 
 562 563 564 
 482 379 190 
 254 448 524 
 129 561 65 
 458 411 565 
 44 268 141 
 8 288 142 
 524 448 40 
 162 566 169 
 527 465 464 
 149 151 345 
 311 345 151 
 221 370 250 
 51 394 142 
 252 501 567 
 293 336 58 
 193 184 39 
 88 395 568 
 108 418 219 
 502 219 418 
 280 278 536 
 518 439 517 
 569 481 149 
 195 197 563 
 67 65 561 
 502 243 526 
 345 569 149 
 535 278 570 
 334 283 495 
 183 495 283 
 83 28 211 
 221 309 348 
 180 268 299 
 234 17 19 
 497 428 429 
 116 571 488 
 334 495 474 
 263 391 557 
 508 572 573 
 277 351 373 
 106 574 354 
 527 447 528 
 544 45 141 
 59 254 575 
 71 93 95 
 96 73 97 
 78 339 79 
 5 79 339 
 338 457 576 
 458 576 457 
 471 470 514 
 406 16 452 
 217 495 577 
 183 577 495 
 578 330 329 
 515 494 63 
 284 376 579 
 76 17 48 
 247 160 580 
 581 580 160 
 203 582 374 
 35 484 318 
 400 341 340 
 300 358 530 
 287 143 288 
 124 448 254 
 366 82 583 
 527 464 584 
 585 314 262 
 143 585 262 
 239 302 364 
 385 549 505 
 178 541 177 
 275 564 276 
 497 429 498 
 586 549 20 
 67 580 455 
 581 455 580 
 175 256 459 
 551 552 587 
 489 317 319 
 164 588 123 
 518 119 589 
 326 397 422 
 100 422 397 
 221 362 370 
 590 564 563 
 342 477 591 
 423 259 592 
 246 592 259 
 246 237 593 
 426 593 237 
 594 403 476 
 489 595 464 
 490 159 596 
 51 143 262 
 350 135 137 