TITLE      =  "2D FE Unstructured grid data" 
VARIABLES = "X", "Y", "U", "Dom" 
ZONE T="P1", F=FEPOINT, N= 694 E= 1273  ET=TRIANGLE 
 5.221864 8.314909 13.536813 2
 5.194563 8.453780 13.648371 2
 5.103426 8.308444 13.411898 2
 5.039473 8.409187 13.448690 2
 4.843771 7.742307 12.586119 2
 4.766234 7.666049 12.432332 2
 4.942622 7.631082 12.573747 2
 4.792192 8.827494 13.619702 2
 4.900336 8.739722 13.640079 2
 4.900708 8.889679 13.790401 2
 5.018963 8.822566 13.841542 2
 6.324848 6.482803 12.807638 2
 6.340768 6.646847 12.987606 2
 6.250611 6.565264 12.815864 2
 4.518532 9.039821 13.558372 2
 4.623083 9.182564 13.805666 2
 4.474886 9.182805 13.657706 2
 4.643481 9.022559 13.666055 2
 4.821928 7.549235 12.371214 2
 6.025010 7.132655 13.157657 2
 5.983438 7.024341 13.007773 2
 6.124147 7.063564 13.187701 2
 6.063959 6.945081 13.009033 2
 6.336443 7.604251 13.940685 2
 6.425355 7.527565 13.952927 2
 6.428321 7.684815 14.113102 2
 6.546347 5.390184 11.936510 2
 6.515219 5.280851 11.796046 2
 6.685428 5.362820 12.048229 2
 6.434163 6.527350 12.961503 2
 4.623034 6.302894 10.925963 2
 4.483908 6.449684 10.933641 2
 4.452465 6.301439 10.753958 2
 3.642383 7.890832 11.533291 2
 3.511250 7.910295 11.421628 2
 3.556786 7.772664 11.329535 2
 3.421979 7.817657 11.239724 2
 6.244118 7.184323 13.428433 2
 6.266187 7.027318 13.293499 2
 6.347591 7.127566 13.475156 2
 4.690049 8.661431 13.351501 2
 4.815514 8.530622 13.346169 2
 4.799302 8.686742 13.486067 2
 4.711200 8.307444 13.018687 2
 4.741633 8.163024 12.904712 2
 4.860852 8.234040 13.094934 2
 4.410115 6.599568 11.009732 2
 4.332772 6.515707 10.848536 2
 4.330570 6.401648 10.732284 2
 3.828752 6.011590 9.840407 2
 3.775733 5.907977 9.683774 2
 3.940711 5.922763 9.863530 2
 3.948256 8.299196 12.247519 2
 3.843820 8.384261 12.228141 2
 3.843518 8.238039 12.081625 2
 3.720820 6.912322 10.633237 2
 3.724187 6.781441 10.505713 2
 3.827966 6.839842 10.667899 2
 4.835890 8.349513 13.185441 2
 5.996070 7.736128 13.732198 2
 5.958368 7.915096 13.873466 2
 5.865686 7.811341 13.677033 2
 5.033668 8.974723 14.008397 2
 4.887443 9.018431 13.905884 2
 4.550435 6.184982 10.735458 2
 5.160952 8.874516 14.035479 2
 5.117629 9.121278 14.238917 2
 5.054770 9.226753 14.281536 2
 4.976250 9.108380 14.084641 2
 6.362182 7.384542 13.746716 2
 6.409706 7.225019 13.634718 2
 6.497157 7.378639 13.875792 2
 4.682370 6.145089 10.827492 2
 4.738197 6.044947 10.783177 2
 4.770121 6.206210 10.976368 2
 4.595613 8.187726 12.783394 2
 4.511151 8.049745 12.560953 2
 4.657690 8.056572 12.714313 2
 6.296477 6.291746 12.588208 2
 6.178900 6.299035 12.477921 2
 6.199009 6.150740 12.349740 2
 3.623137 6.846333 10.469556 2
 4.844717 6.127686 10.972423 2
 4.543251 6.941085 11.484388 2
 4.651010 6.849020 11.500074 2
 4.676975 7.006541 11.683559 2
 6.577372 6.121279 12.698630 2
 6.721230 6.140491 12.861701 2
 6.586689 6.236336 12.823019 2
 6.462371 6.286243 12.748602 2
 6.550437 6.430156 12.980583 2
 6.375656 6.392724 12.768370 2
 3.711240 7.702978 11.414301 2
 3.753700 7.593210 11.346998 2
 3.852340 7.744352 11.596776 2
 5.219138 6.610251 11.829407 2
 5.205322 6.783471 11.988811 2
 5.094726 6.711517 11.806268 2
 5.838173 7.692947 13.531119 2
 3.880420 7.593835 11.474341 2
 4.992723 9.561673 14.554408 2
 4.955625 9.444233 14.399870 2
 5.100862 9.495233 14.596102 2
 5.104562 9.353175 14.457748 2
 5.571858 7.994799 13.566669 2
 5.702821 7.933967 13.636800 2
 5.684880 8.078018 13.762900 2
 4.209164 6.676344 10.885578 2
 4.083702 6.608777 10.692554 2
 4.210244 6.520789 10.731103 2
 4.047033 6.461767 10.508870 2
 4.134202 8.347101 12.481361 2
 3.981994 8.390379 12.372430 2
 4.054682 8.266901 12.321643 2
 5.326624 8.394687 13.721331 2
 5.455002 8.323562 13.778584 2
 5.448535 8.493784 13.942338 2
 6.126753 7.757062 13.883813 2
 6.265494 7.724443 13.989923 2
 6.192368 7.834031 14.026395 2
 5.281036 8.087737 13.368809 2
 5.183760 7.973964 13.157763 2
 5.325183 7.953028 13.278241 2
 5.229473 7.854873 13.084382 2
 6.850639 5.821062 12.671689 2
 6.764899 5.732218 12.497096 2
 6.949240 5.690904 12.640127 2
 5.602718 6.699167 12.301889 2
 5.685526 6.823863 12.509395 2
 5.533053 6.801820 12.334876 2
 6.197004 5.609816 11.806801 2
 6.292776 5.740302 12.033059 2
 6.176824 5.767386 11.944190 2
 6.232662 6.425375 12.658022 2
 4.176283 7.510770 11.687127 2
 4.021476 7.534031 11.555582 2
 4.107207 7.367772 11.475051 2
 3.968200 7.421478 11.389758 2
 3.615132 6.728545 10.343761 2
 6.807890 5.608046 12.415917 2
 4.007149 7.706590 11.713819 2
 6.036715 7.571488 13.608197 2
 6.139481 7.641781 13.781254 2
 4.928938 8.408052 13.337025 2
 6.324090 5.449898 11.773966 2
 6.212828 5.480120 11.692925 2
 6.250869 5.309196 11.560045 2
 6.090784 7.860630 13.951408 2
 3.245531 7.230278 10.475911 2
 3.155838 7.313945 10.469888 2
 3.091022 7.181091 10.272218 2
 6.707098 6.267285 12.974364 2
 4.752560 9.091887 13.844460 2
 4.753585 9.217464 13.971059 2
 4.921981 8.624599 13.546606 2
 4.255176 8.445662 12.700891 2
 4.310953 8.315970 12.626975 2
 5.317335 8.524278 13.841632 2
 5.448219 6.482357 11.930579 2
 5.550116 6.335684 11.885799 2
 5.598416 6.473492 12.071906 2
 5.385935 6.762380 12.148328 2
 5.444646 6.913848 12.358513 2
 3.892871 7.484823 11.377771 2
 5.214862 8.622054 13.836941 2
 5.107150 8.727748 13.834908 2
 5.044873 8.595980 13.640878 2
 5.285058 6.963790 12.248870 2
 5.303810 6.851843 12.155672 2
 6.348578 6.008866 12.357426 2
 6.448305 6.119336 12.567629 2
 6.317267 6.096814 12.414062 2
 5.664499 7.207910 12.872419 2
 5.646004 7.361714 13.007729 2
 5.534051 7.227073 12.761132 2
 5.494450 7.360512 12.854983 2
 5.330009 6.659079 11.989100 2
 4.374683 7.131568 11.506310 2
 4.237511 7.038578 11.276151 2
 4.349758 7.017886 11.367702 2
 5.704483 6.374544 12.079020 2
 6.420067 5.386676 11.806723 2
 4.050963 8.481641 12.532660 2
 4.659850 8.878281 13.538149 2
 4.771643 8.955138 13.726799 2
 4.218152 7.147321 11.365539 2
 5.749829 6.701849 12.451673 2
 3.777973 6.416477 10.194530 2
 3.922608 6.355734 10.278410 2
 3.912579 6.474751 10.387403 2
 4.566793 6.573065 11.139896 2
 4.145229 7.234875 11.380180 2
 4.059261 7.122772 11.182111 2
 5.248151 9.549439 14.797601 2
 5.089444 9.635806 14.725258 2
 5.225109 9.663507 14.888619 2
 4.864355 9.365487 14.229854 2
 4.799243 9.464533 14.263793 2
 6.086353 6.241210 12.327548 2
 4.813176 7.911351 12.724576 2
 4.948983 7.864202 12.813238 2
 4.549316 8.906294 13.455641 2
 4.448827 8.208036 12.656908 2
 4.059628 6.004992 10.064677 2
 3.938392 6.086611 10.025063 2
 4.694573 8.537153 13.231758 2
 3.927176 6.221677 10.148915 2
 3.770183 6.156655 9.926908 2
 5.057843 6.603064 11.660927 2
 4.888464 9.546127 14.434599 2
 4.344721 9.139347 13.484084 2
 4.397971 9.039911 13.437905 2
 6.290893 6.904168 13.195054 2
 6.397560 6.995712 13.393264 2
 6.405883 6.864030 13.269913 2
 5.928920 7.612831 13.541752 2
 5.534955 8.410294 13.945272 2
 5.204967 6.904642 12.109633 2
 5.076235 6.911542 11.987802 2
 6.529588 5.553187 12.082748 2
 6.684817 5.529173 12.213962 2
 6.574519 5.663994 12.238492 2
 6.690910 5.668113 12.359004 2
 5.040743 7.991185 13.031968 2
 5.087064 7.877637 12.964737 2
 5.892580 6.036529 11.929102 2
 5.829604 5.902960 11.732545 2
 5.930879 5.901834 11.832702 2
 6.348769 6.192240 12.540994 2
 3.510660 7.636990 11.147742 2
 3.447775 7.505364 10.953234 2
 3.627092 7.551364 11.178546 2
 3.559541 7.424548 10.984181 2
 5.054564 6.800837 11.855433 2
 5.635381 6.053502 11.688875 2
 5.708464 6.179259 11.887713 2
 5.580335 6.184878 11.765207 2
 5.724779 7.792501 13.517291 2
 5.813758 7.908040 13.721807 2
 4.557470 9.579404 14.136882 2
 4.409207 9.553614 13.962822 2
 4.558940 9.462377 14.021331 2
 4.451516 9.419845 13.871370 2
 5.087629 7.126500 12.214159 2
 5.238856 7.112688 12.351566 2
 5.122115 7.262406 12.384550 2
 5.279744 7.252313 12.532084 2
 4.534422 7.490746 12.025229 2
 4.536436 7.376394 11.912891 2
 4.672927 7.475581 12.148562 2
 4.652640 7.350923 12.003620 2
 4.834458 7.281233 12.115731 2
 4.974308 7.230979 12.205327 2
 4.991446 7.348893 12.340378 2
 5.115304 7.631296 12.746638 2
 5.248849 7.594256 12.843134 2
 5.241812 7.726308 12.968153 2
 5.307677 5.989727 11.297408 2
 5.244080 6.136095 11.380175 2
 5.172787 6.042550 11.215348 2
 4.635546 8.455350 13.090942 2
 4.588533 8.601883 13.190451 2
 4.478090 8.516355 12.994484 2
 4.973298 8.502631 13.475957 2
 4.743224 8.436479 13.179739 2
 4.900292 7.423846 12.324176 2
 5.125394 7.766198 12.891631 2
 4.911258 9.657254 14.568524 2
 5.374543 7.049115 12.423680 2
 5.942912 7.503657 13.446567 2
 5.844851 7.405440 13.250286 2
 5.952569 7.343401 13.295964 2
 6.438160 5.975036 12.413181 2
 4.576108 7.607667 12.183825 2
 5.568016 7.505361 13.073391 2
 5.421016 7.473299 12.894336 2
 4.386937 7.957093 12.344085 2
 4.280149 8.028477 12.308690 2
 4.251044 7.871155 12.122267 2
 4.974689 6.722596 11.697313 2
 4.848577 6.738701 11.587313 2
 4.914988 6.591507 11.506523 2
 4.793907 6.642322 11.436264 2
 4.325822 9.399570 13.725410 2
 4.938622 9.210174 14.148815 2
 4.121198 7.040025 11.161297 2
 4.711037 7.794382 12.505478 2
 5.482297 5.971089 11.453385 2
 5.619124 5.899089 11.518208 2
 4.598866 7.059680 11.658595 2
 3.819483 6.289340 10.108892 2
 6.175334 6.712549 12.887875 2
 3.572550 6.630432 10.203071 2
 3.721129 6.618779 10.339990 2
 5.582434 7.111613 12.694061 2
 5.730698 7.082888 12.813587 2
 4.613519 6.446199 11.059755 2
 6.036983 7.427572 13.464553 2
 4.971705 8.284924 13.256664 2
 4.976001 8.131276 13.107318 2
 4.168963 6.230496 10.399520 2
 4.053305 6.149411 10.202780 2
 4.156271 6.085233 10.241561 2
 6.311346 5.599753 11.911070 2
 5.722375 7.494719 13.217097 2
 5.690073 7.627812 13.317897 2
 6.631111 6.026497 12.657591 2
 5.019590 9.767318 14.786910 2
 4.261810 6.154975 10.416837 2
 5.553058 7.626899 13.179974 2
 3.720242 7.024384 10.744716 2
 3.818640 6.978978 10.797696 2
 3.808242 7.139900 10.948229 2
 4.050350 6.303873 10.354283 2
 5.338184 6.231318 11.569508 2
 5.399867 6.102345 11.502215 2
 5.459824 6.216411 11.676234 2
 5.878323 6.748794 12.627123 2
 6.016706 6.747408 12.764116 2
 5.954902 6.877563 12.832469 2
 5.135509 6.219526 11.355047 2
 5.055723 6.299394 11.355135 2
 4.986338 6.169107 11.155463 2
 5.848434 6.998054 12.846489 2
 5.808165 6.849018 12.657179 2
 4.955557 6.285827 11.241408 2
 6.095220 6.845009 12.940225 2
 5.361442 9.235927 14.597379 2
 5.476700 9.225661 14.702367 2
 5.444541 9.386308 14.830853 2
 5.763447 5.978761 11.742202 2
 4.468042 7.715165 12.183274 2
 4.502781 7.876628 12.379469 2
 4.367325 7.805503 12.172891 2
 5.725727 6.942658 12.668386 2
 4.584562 7.758676 12.343296 2
 4.387048 8.081140 12.468250 2
 6.011650 5.978821 11.990457 2
 5.768535 6.088666 11.857193 2
 4.774349 6.316844 11.091225 2
 4.771996 6.822196 11.594234 2
 4.921848 6.875056 11.796933 2
 4.776976 6.939325 11.716344 2
 5.106018 6.117599 11.223635 2
 3.758244 7.836802 11.595129 2
 5.280290 6.342507 11.622803 2
 5.411267 6.342228 11.753493 2
 5.295508 6.477823 11.773341 2
 4.193398 8.227467 12.420923 2
 4.153456 7.978736 12.132260 2
 4.177986 8.088549 12.266600 2
 4.026791 8.054142 12.080997 2
 4.579339 9.775171 14.354514 2
 4.491577 9.682027 14.173612 2
 4.655893 9.654855 14.310754 2
 4.447915 8.350212 12.798170 2
 4.308178 8.162348 12.470587 2
 3.481774 7.339940 10.821813 2
 3.377903 7.389180 10.767174 2
 4.581967 7.159510 11.741532 2
 4.698600 7.260993 11.959639 2
 4.564543 7.276639 11.841236 2
 4.417337 6.191537 10.608920 2
 5.989936 6.513116 12.503041 2
 6.079998 6.386104 12.466084 2
 6.131536 6.546044 12.677568 2
 5.592066 7.860765 13.452843 2
 4.443876 8.669430 13.113340 2
 4.715678 7.142967 11.858687 2
 3.910329 7.913257 11.823657 2
 5.072101 8.187603 13.259742 2
 4.581558 8.759679 13.341268 2
 4.106899 8.169879 12.276845 2
 4.605456 6.088699 10.694188 2
 5.946052 6.642387 12.588426 2
 5.389594 9.632672 15.022272 2
 5.287799 9.750173 15.037977 2
 6.460231 6.637274 13.097493 2
 5.305802 8.228199 13.534039 2
 4.707977 7.588343 12.296369 2
 4.770649 7.392766 12.163464 2
 5.097023 7.394842 12.491899 2
 3.714106 6.028776 9.742958 2
 5.316194 8.940395 14.256597 2
 5.194096 9.013437 14.207535 2
 6.734489 6.014736 12.749218 2
 3.919438 7.045442 10.964957 2
 6.308508 6.782358 13.090854 2
 4.951414 7.741698 12.693155 2
 3.219912 7.099728 10.319736 2
 4.352052 8.542392 12.894489 2
 5.019200 7.792492 12.811734 2
 5.102235 8.506653 13.608907 2
 5.407197 9.504215 14.911423 2
 4.045402 7.234003 11.279488 2
 5.626664 7.003680 12.630355 2
 5.151985 9.824062 14.976044 2
 5.070296 9.897686 14.967985 2
 5.425395 8.066589 13.492005 2
 3.764626 7.978360 11.743068 2
 5.311906 9.455657 14.767566 2
 5.147015 9.724869 14.871892 2
 4.257246 8.596165 12.853454 2
 4.145428 8.562978 12.708452 2
 4.597871 7.963859 12.561788 2
 4.314149 8.687351 13.001531 2
 3.598216 6.522669 10.120961 2
 5.180929 8.201887 13.382854 2
 4.472039 8.800057 13.272124 2
 5.230484 9.305805 14.536298 2
 5.261732 9.161214 14.422949 2
 4.356926 6.065837 10.422809 2
 4.303561 6.275100 10.578717 2
 5.323923 9.351140 14.675064 2
 6.202116 5.874313 12.076411 2
 6.049241 5.823913 11.873142 2
 6.425797 5.666373 12.092144 2
 4.341845 9.257669 13.599532 2
 3.838081 6.567790 10.405950 2
 4.856603 7.145395 12.002043 2
 4.449424 9.311433 13.760871 2
 5.284117 8.831192 14.115317 2
 5.447165 8.199057 13.646244 2
 3.384366 7.927693 11.312141 2
 3.246407 7.816896 11.063398 2
 4.900376 8.008267 12.908691 2
 5.368001 7.803230 13.171256 2
 6.107842 5.934070 12.041895 2
 4.998565 8.691900 13.690478 2
 5.149235 6.503205 11.652459 2
 4.142662 7.770654 11.913390 2
 4.062350 7.835704 11.898128 2
 5.153835 9.233645 14.387481 2
 5.342384 7.156353 12.498763 2
 6.677935 6.532219 13.210146 2
 6.720660 6.397946 13.118596 2
 5.663185 8.228879 13.892076 2
 5.554943 8.137086 13.692047 2
 6.158843 7.484761 13.643595 2
 6.214417 7.341128 13.555534 2
 6.287699 7.489812 13.777506 2
 6.408441 5.539903 11.948327 2
 3.963344 8.167383 12.130791 2
 6.065762 6.644947 12.710706 2
 6.488848 6.925975 13.414819 2
 5.513700 9.525151 15.038856 2
 5.281466 7.474548 12.756042 2
 5.354449 7.365193 12.719667 2
 4.872307 7.020385 11.892733 2
 4.252996 7.294376 11.547440 2
 4.354853 7.244166 11.599083 2
 5.215716 9.421371 14.637092 2
 6.045297 6.091761 12.137046 2
 4.106539 8.681413 12.787991 2
 4.001079 8.619575 12.620698 2
 3.538919 6.806466 10.345473 2
 3.826000 6.707777 10.533857 2
 6.618821 6.336739 12.955551 2
 5.020481 7.500053 12.520575 2
 4.783399 8.029253 12.812703 2
 5.384756 8.631455 14.016214 2
 5.327545 8.743096 14.070653 2
 4.859877 9.151567 14.011454 2
 5.001524 7.020991 12.022553 2
 3.349836 7.708594 11.058522 2
 5.957688 6.180433 12.138108 2
 6.552126 6.569087 13.121205 2
 6.538285 6.701602 13.239882 2
 6.654490 6.668553 13.323036 2
 6.628255 6.795046 13.423293 2
 4.368837 8.434118 12.802999 2
 6.618520 5.443135 12.061628 2
 5.884179 7.129126 13.013303 2
 3.167779 7.683233 10.851108 2
 3.263058 7.656786 10.919941 2
 6.233740 7.586770 13.820508 2
 4.531622 8.420821 12.952480 2
 4.562901 8.315740 12.878687 2
 6.203375 6.835410 13.038782 2
 3.969505 6.572711 10.542287 2
 5.449233 7.590049 13.039300 2
 4.031507 7.932813 11.964391 2
 4.187191 6.370886 10.558140 2
 3.710642 6.294157 10.004868 2
 5.233618 6.250854 11.484484 2
 3.953669 7.810437 11.764183 2
 5.027209 6.035408 11.062633 2
 4.888825 6.027974 10.916815 2
 4.921330 7.526054 12.447424 2
 6.173964 6.936758 13.110717 2
 3.668547 7.791031 11.459661 2
 4.852577 8.123547 12.976166 2
 4.963239 7.116050 12.079329 2
 3.755050 7.484173 11.239310 2
 3.678781 7.358489 11.037361 2
 3.839210 7.390600 11.229899 2
 3.572624 7.136677 10.709397 2
 3.620426 6.995499 10.616013 2
 3.674249 7.116525 10.790864 2
 3.512885 7.022688 10.535665 2
 6.311791 7.282618 13.594406 2
 6.236439 5.984707 12.221136 2
 5.778982 7.195742 12.974734 2
 5.513087 7.016447 12.529548 2
 5.599947 6.895392 12.495351 2
 6.124454 7.204599 13.329051 2
 3.924407 6.778689 10.703174 2
 3.918741 6.904608 10.823431 2
 3.621964 6.380307 10.002348 2
 3.706648 6.508783 10.215515 2
 6.070055 7.308872 13.378926 2
 5.215215 8.747265 13.962494 2
 4.250460 8.816812 13.067304 2
 4.368865 8.786231 13.155128 2
 4.325902 8.925805 13.251730 2
 4.231218 7.410373 11.641661 2
 6.552555 5.914373 12.466906 2
 6.448441 5.864358 12.312781 2
 6.516156 5.774285 12.290424 2
 4.380692 6.783002 11.163753 2
 4.327588 6.682076 11.009724 2
 4.485376 6.682701 11.168128 2
 4.282556 6.957081 11.239696 2
 4.143545 6.940578 11.084192 2
 4.203537 6.832942 11.036549 2
 4.446509 7.322335 11.768902 2
 4.440694 7.457618 11.898378 2
 6.643902 5.788945 12.432831 2
 5.209591 7.373124 12.582745 2
 4.698592 8.771091 13.469707 2
 4.701714 6.395284 11.097034 2
 5.830730 7.559935 13.390670 2
 5.339095 9.054036 14.393134 2
 5.775057 6.563979 12.339026 2
 5.705297 6.482441 12.187732 2
 5.842587 6.430380 12.272954 2
 4.347909 7.403681 11.751650 2
 4.102388 6.731255 10.833721 2
 4.042965 6.835967 10.879010 2
 5.154410 7.012564 12.166998 2
 3.919992 8.025494 11.945552 2
 3.914390 6.657681 10.572149 2
 4.209990 8.931535 13.141554 2
 4.127783 8.810086 12.937907 2
 3.414002 6.824035 10.238129 2
 3.397062 6.972573 10.369730 2
 3.277380 6.882189 10.159663 2
 4.148323 8.448848 12.597226 2
 5.888014 5.768173 11.656176 2
 5.493474 7.799499 13.292986 2
 5.460635 7.695292 13.155944 2
 5.533744 6.581156 12.114902 2
 5.462663 7.912985 13.375674 2
 3.578867 7.278636 10.857593 2
 5.124939 8.088936 13.213911 2
 5.983962 7.228858 13.212815 2
 4.291726 6.598414 10.890203 2
 5.778348 6.292717 12.071054 2
 5.895851 6.288805 12.184638 2
 5.000000 10.000000 15.000000 2
 4.861111 10.000000 14.861111 2
 4.913227 9.878787 14.792020 2
 4.030770 8.744462 12.775271 2
 4.722222 10.000000 14.722221 2
 4.583333 10.000000 14.583333 2
 4.672441 9.880175 14.552622 2
 5.344021 7.672044 13.016099 2
 6.332316 5.886735 12.219035 2
 5.348897 7.561344 12.910269 2
 6.886796 5.934924 12.821709 2
 6.972481 5.823722 12.796192 2
 4.565258 9.317526 13.882798 2
 4.476462 7.048297 11.524819 2
 4.404589 6.915154 11.319797 2
 4.689008 6.623161 11.312202 2
 4.802021 6.536401 11.338452 2
 4.212398 8.713079 12.925519 2
 5.864811 7.265457 13.130267 2
 5.756623 7.304313 13.060947 2
 4.692145 6.510069 11.202250 2
 3.770442 7.300319 11.070850 2
 5.648269 6.275876 11.924139 2
 4.251238 7.728322 11.979628 2
 5.515975 6.101072 11.617045 2
 3.704860 7.213806 10.918753 2
 3.874635 7.269837 11.144547 2
 4.498084 6.058089 10.556208 2
 7.006169 5.945679 12.951837 2
 3.823353 8.107009 11.930430 2
 4.141549 7.641022 11.782646 2
 3.971478 7.312364 11.283928 2
 4.667230 7.685610 12.352889 2
 4.614072 7.870597 12.484728 2
 4.361379 7.659491 12.020930 2
 4.454059 7.580986 12.035111 2
 6.403038 5.775277 12.178294 2
 3.205936 7.420095 10.626126 2
 3.182489 7.548820 10.731405 2
 3.067519 7.422348 10.489964 2
 3.456605 6.579809 10.036499 2
 5.881123 6.555159 12.436274 2
 4.357193 7.543555 11.900817 2
 4.433757 8.899753 13.333536 2
 6.527028 6.032881 12.559894 2
 3.440204 7.103339 10.543642 2
 3.340920 7.072015 10.413033 2
 6.746459 5.836737 12.583185 2
 6.783448 5.935107 12.718542 2
 4.140000 7.877362 12.017435 2
 6.681101 5.925217 12.606302 2
 5.477098 6.708196 12.185304 2
 4.671092 9.415395 14.086494 2
 4.757458 9.336107 14.093579 2
 4.504460 6.802976 11.307490 2
 6.134613 6.033668 12.168268 2
 5.028214 7.709449 12.737704 2
 3.943378 7.179153 11.122615 2
 5.436562 6.612066 12.048630 2
 5.138889 10.000000 15.138889 2
 4.309435 6.850822 11.160321 2
 4.444445 10.000000 14.444445 2
 4.543991 9.895347 14.439339 2
 3.603919 7.676636 11.280643 2
 3.305654 7.465668 10.771417 2
 4.670959 9.291055 13.962032 2
 4.001836 6.698579 10.700489 2
 5.544349 8.245235 13.789611 2
 5.585395 7.733250 13.318662 2
 4.286083 6.765038 11.051187 2
 4.595124 6.705735 11.300902 2
 3.350084 7.183947 10.534135 2
 5.960152 6.379493 12.339627 2
 4.679265 9.535705 14.214986 2
 6.122543 7.390570 13.513109 2
 4.712487 6.733693 11.446225 2
 5.209268 6.416811 11.626087 2
 5.162119 7.494687 12.656835 2
 4.022027 6.978586 11.000692 2
 5.102062 6.414493 11.516575 2
 5.008130 6.495294 11.503452 2
 3.320114 7.573364 10.893569 2
 4.783470 9.602942 14.386420 2
 4.796529 9.717548 14.514082 2
 3.277499 6.994697 10.272286 2
 5.743260 7.394180 13.137442 2
 4.693612 9.760940 14.454559 2
 6.504592 5.462617 11.967190 2
 4.776282 7.054303 11.830628 2
 3.467101 7.227109 10.694307 2
 6.427768 6.742944 13.170694 2
 5.345887 6.568316 11.914210 2
 5.402276 7.244334 12.646627 2
 4.464261 7.193318 11.657639 2
 3.916076 8.502984 12.419120 2
 5.846077 6.642434 12.488500 2
 5.994973 6.290595 12.285554 2
 3.481405 6.723879 10.205380 2
 3.350997 6.695115 10.046206 2
 5.450286 7.125034 12.575331 2
 6.950093 6.061373 13.011453 2
 4.258708 7.599420 11.858197 2
 6.512930 6.825555 13.338469 2
 4.791667 9.921261 14.712930 2
 4.791667 9.816274 14.607943 2
 6.867051 6.143633 13.010666 2
 6.839781 6.036135 12.875902 2
 5.591185 8.333581 13.924787 2
 3.652785 7.454267 11.107147 2
 5.363317 8.144968 13.508310 2
 3.366880 7.285813 10.652795 2
 3.278885 7.344421 10.623409 2
 4.901669 6.452595 11.354298 2
 3.451642 7.720843 11.172566 2
 4.961455 9.310482 14.271946 2
 4.246490 6.045128 10.291671 2
 4.886454 9.767436 14.653893 2
 4.274262 7.493560 11.767894 2
 5.375149 9.146306 14.521464 2
 6.594790 6.921363 13.516142 2
 5.660082 6.583299 12.243376 2
 4.698055 7.935896 12.634008 2
 4.799413 6.423173 11.222620 2
 4.290026 9.051939 13.341994 2
 3.519023 6.909560 10.428677 2
 3.408854 7.624741 11.033697 2
 4.984843 6.382586 11.367452 2
 4.850798 9.263067 14.113873 2
 5.837869 6.177964 12.015822 2
 5.170027 6.324827 11.494868 2
 4.168519 5.965186 10.133753 2
 6.533076 7.023215 13.556285 2
 6.465974 7.128116 13.594093 2
 4.880465 6.349662 11.230160 2
 4.866957 6.236947 11.103929 2
 1 2 3 
 3 2 4 
 5 6 7 
 8 9 10 
 10 9 11 
 12 13 14 
 15 16 17 
 18 16 15 
 6 19 7 
 20 21 22 
 21 23 22 
 24 25 26 
 27 28 29 
 30 13 12 
 31 32 33 
 34 35 36 
 37 36 35 
 38 39 40 
 41 42 43 
 38 22 39 
 44 45 46 
 47 48 32 
 49 32 48 
 50 51 52 
 53 54 55 
 56 57 58 
 59 44 46 
 60 61 62 
 10 63 64 
 11 63 10 
 31 33 65 
 66 63 11 
 67 68 69 
 70 71 72 
 73 74 75 
 76 77 78 
 79 80 81 
 82 57 56 
 75 74 83 
 84 85 86 
 87 88 89 
 90 91 92 
 30 92 91 
 93 94 95 
 96 97 98 
 60 62 99 
 95 94 100 
 101 102 103 
 104 103 102 
 105 106 107 
 108 109 110 
 111 110 109 
 112 113 114 
 115 116 117 
 118 119 120 
 121 122 123 
 124 123 122 
 115 2 1 
 125 126 127 
 128 129 130 
 131 132 133 
 134 79 92 
 135 136 137 
 138 137 136 
 139 57 82 
 126 140 127 
 141 100 136 
 60 142 143 
 59 144 42 
 145 146 147 
 60 148 61 
 149 150 151 
 152 89 88 
 16 153 154 
 18 153 16 
 42 155 43 
 156 112 157 
 115 158 2 
 159 160 161 
 162 130 163 
 100 164 136 
 165 166 167 
 168 169 163 
 162 163 169 
 170 171 172 
 173 174 175 
 176 175 174 
 162 97 177 
 96 177 97 
 178 179 180 
 181 161 160 
 145 147 182 
 183 113 112 
 184 185 18 
 178 186 179 
 128 187 129 
 188 189 190 
 47 32 191 
 186 192 193 
 103 194 195 
 194 196 195 
 197 102 198 
 143 119 118 
 199 81 80 
 53 114 113 
 200 5 201 
 184 18 202 
 76 203 77 
 204 205 52 
 41 206 42 
 207 208 205 
 50 205 208 
 96 98 209 
 66 11 166 
 198 102 210 
 211 212 17 
 39 213 214 
 215 214 213 
 60 216 142 
 217 117 116 
 97 218 219 
 220 221 222 
 221 223 222 
 224 201 225 
 226 227 228 
 79 81 229 
 230 231 232 
 233 232 231 
 234 97 219 
 235 236 237 
 238 99 62 
 238 239 106 
 240 241 242 
 243 242 241 
 212 15 17 
 244 245 246 
 247 246 245 
 248 249 250 
 251 250 249 
 238 62 239 
 111 190 189 
 50 52 205 
 252 253 254 
 255 256 257 
 258 259 260 
 261 262 263 
 42 144 264 
 165 2 158 
 59 42 265 
 252 254 266 
 255 257 267 
 101 195 268 
 168 163 269 
 270 271 272 
 273 171 170 
 141 95 100 
 248 250 274 
 162 169 97 
 176 275 276 
 277 278 279 
 280 281 282 
 283 282 281 
 243 241 284 
 285 69 68 
 286 186 193 
 200 287 5 
 235 288 289 
 84 86 290 
 188 291 189 
 292 14 13 
 139 293 294 
 76 78 45 
 173 295 296 
 90 92 79 
 31 297 32 
 207 291 208 
 270 272 298 
 299 46 300 
 301 302 303 
 131 304 132 
 305 306 275 
 87 307 88 
 308 268 195 
 301 303 309 
 49 33 32 
 310 275 306 
 311 312 313 
 207 302 314 
 301 314 302 
 244 246 253 
 315 316 317 
 115 117 158 
 318 319 320 
 134 80 79 
 317 237 160 
 321 322 323 
 324 325 320 
 326 323 322 
 23 320 327 
 328 329 330 
 235 289 331 
 319 327 320 
 332 333 334 
 67 69 63 
 238 306 99 
 324 335 325 
 332 336 333 
 77 203 337 
 226 228 338 
 280 282 209 
 318 325 187 
 259 316 315 
 235 339 236 
 129 187 325 
 31 75 340 
 31 73 75 
 172 229 81 
 341 342 343 
 321 344 259 
 93 95 345 
 346 347 348 
 159 348 347 
 112 349 157 
 176 174 275 
 277 333 77 
 350 351 352 
 353 354 355 
 240 355 354 
 356 157 203 
 357 203 157 
 358 233 231 
 359 358 231 
 360 361 362 
 363 65 33 
 364 365 366 
 134 366 365 
 90 79 229 
 105 367 106 
 368 263 262 
 360 369 361 
 253 246 254 
 370 345 95 
 371 299 300 
 184 202 372 
 373 352 351 
 73 374 74 
 101 103 195 
 86 85 343 
 318 375 319 
 196 376 377 
 30 378 13 
 60 118 148 
 115 1 379 
 250 380 274 
 251 381 250 
 60 99 216 
 223 221 140 
 382 254 246 
 50 208 383 
 66 384 385 
 111 189 314 
 39 214 40 
 350 279 278 
 386 88 307 
 226 331 227 
 168 269 245 
 387 313 312 
 292 13 388 
 259 344 260 
 5 389 201 
 357 349 351 
 149 151 390 
 368 391 263 
 258 316 259 
 392 225 201 
 165 167 393 
 376 194 394 
 395 193 192 
 396 296 295 
 308 397 398 
 121 123 399 
 370 400 345 
 251 361 381 
 401 394 194 
 308 402 397 
 156 403 404 
 139 294 57 
 77 333 405 
 368 406 391 
 403 391 406 
 294 293 407 
 115 379 116 
 1 3 408 
 3 371 408 
 372 202 409 
 328 410 411 
 196 194 376 
 363 309 412 
 363 413 309 
 328 330 414 
 133 415 416 
 19 381 266 
 417 220 222 
 17 418 211 
 188 190 419 
 252 420 253 
 261 206 262 
 17 421 418 
 66 422 384 
 368 262 372 
 292 327 319 
 423 116 379 
 37 424 425 
 224 426 201 
 124 427 123 
 428 416 415 
 9 429 11 
 96 209 430 
 141 431 432 
 104 433 410 
 60 143 118 
 245 269 434 
 435 91 436 
 437 438 107 
 439 440 441 
 70 441 440 
 417 442 220 
 360 290 369 
 86 369 290 
 373 443 352 
 9 43 155 
 364 444 375 
 215 445 214 
 446 376 394 
 447 448 276 
 176 276 448 
 449 343 342 
 450 186 451 
 178 451 186 
 104 452 103 
 199 453 81 
 364 366 444 
 454 455 404 
 139 82 456 
 294 419 457 
 90 458 91 
 266 254 459 
 78 460 45 
 165 461 462 
 138 136 164 
 341 281 342 
 165 158 461 
 64 69 463 
 277 279 334 
 97 234 98 
 53 113 54 
 449 342 464 
 219 464 342 
 37 425 465 
 280 209 98 
 64 463 153 
 199 466 453 
 90 171 89 
 87 89 171 
 321 323 344 
 19 250 381 
 435 467 91 
 30 91 467 
 468 469 470 
 382 459 254 
 356 263 471 
 204 302 205 
 27 29 472 
 18 15 202 
 183 404 455 
 324 473 296 
 474 475 425 
 143 476 119 
 31 65 73 
 356 477 263 
 261 263 477 
 261 478 44 
 292 479 327 
 111 480 190 
 310 481 275 
 276 275 481 
 357 351 278 
 350 352 482 
 49 483 413 
 208 291 484 
 321 259 485 
 141 432 486 
 487 323 488 
 19 266 489 
 252 369 420 
 23 490 22 
 145 304 146 
 93 345 491 
 184 8 185 
 165 393 2 
 492 45 460 
 449 493 420 
 494 495 496 
 226 338 453 
 497 498 499 
 500 498 497 
 370 486 482 
 501 38 40 
 71 501 40 
 172 81 502 
 301 413 483 
 104 68 433 
 296 473 503 
 396 504 505 
 38 440 506 
 58 507 508 
 134 92 12 
 450 137 192 
 449 464 493 
 407 509 510 
 111 314 483 
 301 483 314 
 104 410 452 
 432 482 486 
 341 343 85 
 511 506 440 
 439 143 142 
 66 166 512 
 163 505 504 
 292 366 14 
 513 514 515 
 450 516 137 
 244 253 493 
 188 419 510 
 439 476 143 
 517 518 519 
 520 521 522 
 523 524 525 
 417 222 519 
 9 8 43 
 526 249 527 
 49 110 483 
 517 519 528 
 447 529 448 
 247 448 529 
 156 391 403 
 184 530 8 
 18 185 153 
 31 340 531 
 99 306 532 
 188 510 509 
 11 429 166 
 111 109 480 
 533 411 385 
 67 385 411 
 159 347 160 
 292 319 444 
 534 535 536 
 5 7 389 
 526 527 537 
 255 7 459 
 108 525 538 
 539 538 525 
 244 464 540 
 219 540 464 
 141 486 95 
 370 482 541 
 78 77 405 
 111 483 110 
 542 457 419 
 513 543 544 
 545 546 547 
 317 160 347 
 258 288 316 
 183 112 548 
 156 548 112 
 105 107 438 
 228 549 416 
 550 427 551 
 181 535 161 
 83 488 323 
 523 180 179 
 252 266 381 
 70 501 71 
 159 161 552 
 311 313 499 
 305 275 174 
 517 273 518 
 349 114 373 
 112 114 349 
 90 89 458 
 352 541 482 
 207 205 302 
 226 453 466 
 550 553 427 
 370 95 486 
 233 554 495 
 292 388 479 
 428 338 416 
 228 416 338 
 224 555 300 
 20 506 556 
 181 536 535 
 34 345 400 
 108 110 557 
 526 537 451 
 450 451 537 
 29 221 472 
 181 558 536 
 559 536 558 
 560 561 562 
 454 563 455 
 564 565 566 
 567 551 427 
 568 415 132 
 41 372 262 
 305 532 306 
 76 45 44 
 58 457 507 
 397 402 377 
 168 245 540 
 294 407 510 
 123 427 553 
 492 300 46 
 165 462 512 
 410 433 411 
 133 132 415 
 101 210 102 
 123 553 399 
 105 399 553 
 447 276 569 
 24 26 119 
 67 63 385 
 66 385 63 
 570 125 571 
 17 16 572 
 61 239 62 
 252 381 361 
 84 573 574 
 283 575 576 
 403 577 404 
 454 404 577 
 578 271 579 
 580 576 575 
 495 581 496 
 181 160 582 
 583 334 279 
 294 457 57 
 108 538 109 
 317 584 237 
 224 300 426 
 392 201 389 
 583 279 431 
 47 191 522 
 277 77 337 
 585 313 581 
 586 581 313 
 363 587 65 
 244 540 245 
 328 414 410 
 41 530 372 
 184 372 530 
 167 166 429 
 395 192 137 
 570 571 588 
 589 541 443 
 352 443 541 
 141 590 431 
 324 296 335 
 396 335 296 
 395 137 591 
 138 591 137 
 592 287 336 
 593 336 287 
 589 400 541 
 370 541 400 
 145 442 304 
 332 594 595 
 280 342 281 
 4 2 393 
 417 519 596 
 235 331 339 
 597 598 599 
 135 590 136 
 141 136 590 
 134 14 366 
 49 413 33 
 363 33 413 
 261 477 478 
 238 106 367 
 600 407 293 
 160 237 582 
 534 536 601 
 235 584 288 
 602 595 594 
 425 475 465 
 573 180 574 
 603 515 514 
 66 512 422 
 64 153 185 
 273 604 171 
 135 137 516 
 138 496 591 
 586 591 496 
 500 605 546 
 606 546 605 
 607 125 608 
 240 354 241 
 279 609 431 
 517 528 610 
 4 393 264 
 167 264 393 
 570 608 125 
 568 518 273 
 511 556 506 
 23 21 320 
 585 495 554 
 593 405 333 
 162 611 130 
 93 232 94 
 487 260 344 
 612 613 198 
 197 198 613 
 520 614 574 
 84 574 614 
 156 404 548 
 592 336 274 