TITLE      =  "2D FE Unstructured grid data" 
VARIABLES = "X", "Y", "U", "Dom" 
ZONE T="P1", F=FEPOINT, N= 673 E= 1244  ET=TRIANGLE 
 6.801157 9.515192 16.316338 3
 6.687997 9.444273 16.132265 3
 6.839583 9.404687 16.244263 3
 6.547130 9.231997 15.779125 3
 6.642835 9.095756 15.738580 3
 6.670410 9.223898 15.894306 3
 6.759707 9.315547 16.075256 3
 8.098322 8.315125 16.413437 3
 8.191681 8.238590 16.430260 3
 8.229992 8.408799 16.638794 3
 8.284565 8.284565 16.569138 3
 7.196783 8.586221 15.783004 3
 7.200417 8.693474 15.893892 3
 7.050214 8.601746 15.651958 3
 6.485560 9.116166 15.601724 3
 7.098999 8.730274 15.829272 3
 5.725996 8.491804 14.217811 3
 5.840215 8.416333 14.256560 3
 5.846289 8.591111 14.437408 3
 5.982413 8.487105 14.469522 3
 6.329707 9.377750 15.707455 3
 6.492596 9.347685 15.840278 3
 6.401016 9.473169 15.874193 3
 6.144520 8.261088 14.405618 3
 6.017505 8.310702 14.328216 3
 6.014330 8.187575 14.201918 3
 5.899400 8.271502 14.170918 3
 8.872752 8.273797 17.146555 3
 8.712487 8.220457 16.932941 3
 8.827452 8.119555 16.947001 3
 6.023907 9.579772 15.603675 3
 5.876548 9.535896 15.412448 3
 6.006768 9.473273 15.480037 3
 8.801050 9.198662 17.999737 3
 8.869520 9.071326 17.940876 3
 8.952404 9.183449 18.135878 3
 6.783435 9.018176 15.801614 3
 6.778850 9.177019 15.955866 3
 8.660706 9.433530 18.094257 3
 8.734312 9.573100 18.307426 3
 8.588496 9.554889 18.143412 3
 7.275660 8.213222 15.488883 3
 7.137843 8.159833 15.297674 3
 7.227174 8.086565 15.313742 3
 6.686429 8.234365 14.920794 3
 6.638235 8.363351 15.001591 3
 6.535256 8.299313 14.834571 3
 9.209220 8.478637 17.687870 3
 9.133777 8.313864 17.447651 3
 9.279152 8.331158 17.610317 3
 6.567698 8.175380 14.743077 3
 6.406180 9.252308 15.658480 3
 8.383783 8.474099 16.857887 3
 8.366885 8.338261 16.705154 3
 6.515550 7.910473 14.426013 3
 6.624644 7.818213 14.442858 3
 6.686428 7.967595 14.654017 3
 8.328498 8.202458 16.530958 3
 8.532495 9.432484 17.964987 3
 8.080065 8.729655 16.809731 3
 8.244508 8.745080 16.989594 3
 8.128414 8.872846 17.001245 3
 8.260413 8.917900 17.178314 3
 8.472222 10.000000 18.472221 3
 8.333333 10.000000 18.333332 3
 8.410002 9.835957 18.245977 3
 6.646036 8.522911 15.168941 3
 6.661362 8.674201 15.335560 3
 6.551526 8.651682 15.203206 3
 8.964221 8.030745 16.994959 3
 9.014147 8.175214 17.189358 3
 5.942748 9.666035 15.608779 3
 8.417400 9.362967 17.780388 3
 8.413969 9.205578 17.619556 3
 8.555108 9.297521 17.852640 3
 8.544679 9.132903 17.677610 3
 6.522646 8.522436 15.045078 3
 8.299604 8.578965 16.878576 3
 8.150883 8.586969 16.737850 3
 8.194445 10.000000 18.194445 3
 8.096696 9.865049 17.961756 3
 8.265920 9.873768 18.139696 3
 7.193438 8.308837 15.502271 3
 6.673309 9.597209 16.270504 3
 6.560266 9.486866 16.047136 3
 8.781828 8.801836 17.583668 3
 8.649385 8.738236 17.387640 3
 8.818125 8.659156 17.477283 3
 5.786549 8.751596 14.538140 3
 5.831116 8.859455 14.690573 3
 5.704263 8.908795 14.613061 3
 5.667077 8.750273 14.417354 3
 6.344052 9.144920 15.488962 3
 6.398485 9.020336 15.418814 3
 9.688526 9.331212 19.019737 3
 9.532619 9.391139 18.923771 3
 9.557771 9.270160 18.827936 3
 6.805555 10.000000 16.805555 3
 6.669086 9.877488 16.546566 3
 6.780723 9.831198 16.611917 3
 8.049421 8.457720 16.507137 3
 10.000000 8.611111 18.611111 3
 9.850028 8.713051 18.563072 3
 9.900642 8.541667 18.442322 3
 8.611111 10.000000 18.611111 3
 8.541667 9.900642 18.442305 3
 8.713051 9.850028 18.563087 3
 5.339095 9.054036 14.393134 3
 5.474401 8.974982 14.449388 3
 5.467297 9.110331 14.577625 3
 8.381642 9.668290 18.049936 3
 8.440768 9.513515 17.954290 3
 8.504643 9.684635 18.189295 3
 8.030688 8.980727 17.011423 3
 7.947371 9.103440 17.050814 3
 7.889166 8.981995 16.871161 3
 9.166667 10.000000 19.166668 3
 9.060560 9.875159 18.935734 3
 9.228572 9.881005 19.109587 3
 10.000000 9.166667 19.166668 3
 9.881005 9.228572 19.109575 3
 9.878537 9.047251 18.925789 3
 6.572844 8.041079 14.613927 3
 9.099599 8.461967 17.561573 3
 6.551444 8.971073 15.522521 3
 5.316194 8.940395 14.256597 3
 5.494482 9.751087 15.245574 3
 5.389594 9.632672 15.022272 3
 5.532137 9.655560 15.187696 3
 9.624427 9.482075 19.106525 3
 9.420495 8.666971 18.087481 3
 9.306875 8.757733 18.064625 3
 9.300120 8.605878 17.906004 3
 8.795718 8.419788 17.215504 3
 8.723754 8.332795 17.056545 3
 8.395918 8.841307 17.237226 3
 9.789640 8.569086 18.358738 3
 9.690856 8.508653 18.199514 3
 9.833633 8.423933 18.257565 3
 8.204013 8.135688 16.339695 3
 9.730481 9.446910 19.177401 3
 9.731496 9.595981 19.327482 3
 5.840853 8.968827 14.809679 3
 6.024354 9.014854 15.039203 3
 5.875474 9.096663 14.972136 3
 9.083322 8.761953 17.845295 3
 9.034164 8.900838 17.935028 3
 8.968506 8.822564 17.791098 3
 9.660365 8.387761 18.048134 3
 5.951161 8.879012 14.830177 3
 6.555438 9.633027 16.188467 3
 9.609865 8.588952 18.198839 3
 9.558648 8.718589 18.277231 3
 9.508277 8.578885 18.087179 3
 6.713991 8.770042 15.484033 3
 6.679886 8.911281 15.591168 3
 6.559259 8.790221 15.349474 3
 5.777870 9.287535 15.065399 3
 5.914904 9.298908 15.213810 3
 5.802255 9.410053 15.212301 3
 5.912392 9.415397 15.327786 3
 8.916683 8.432035 17.348711 3
 7.203186 8.425324 15.628507 3
 7.341808 8.373205 15.715003 3
 9.808538 9.510171 19.318710 3
 5.397138 9.790697 15.187837 3
 8.654994 9.188523 17.843542 3
 9.659810 9.172133 18.831944 3
 9.140837 8.902877 18.043736 3
 7.135184 9.459273 16.594461 3
 7.014851 9.497261 16.512110 3
 7.063276 9.350357 16.413630 3
 6.750058 7.850803 14.600860 3
 6.952539 9.398787 16.351332 3
 9.590465 9.587537 19.178003 3
 10.000000 8.750000 18.750000 3
 8.750000 10.000000 18.750000 3
 7.669065 8.139335 15.808396 3
 7.572391 8.086435 15.658813 3
 7.718913 8.041488 15.760398 3
 7.499422 8.836214 16.335617 3
 7.567285 8.700944 16.268230 3
 7.614100 8.825500 16.439619 3
 9.857409 9.655199 19.512611 3
 9.706584 9.735977 19.442568 3
 9.492661 8.865435 18.358107 3
 9.436858 9.008142 18.445013 3
 9.380994 8.853726 18.234728 3
 9.803100 9.803100 19.606215 3
 8.568278 9.788975 18.357279 3
 5.914955 8.744390 14.659344 3
 5.830169 8.029728 13.859904 3
 5.684880 8.078018 13.762900 3
 5.702821 7.933967 13.636800 3
 9.036724 9.089385 18.126122 3
 7.777778 10.000000 17.777779 3
 7.638889 10.000000 17.638889 3
 7.724136 9.844862 17.568995 3
 6.186282 9.712640 15.898920 3
 6.141191 9.618241 15.759435 3
 6.285971 9.581976 15.867953 3
 7.569445 9.905751 17.475216 3
 9.505859 9.805383 19.311235 3
 9.573610 9.708761 19.282368 3
 9.645881 9.861273 19.507166 3
 6.098043 7.995399 14.093443 3
 5.970793 8.053564 14.024359 3
 5.958368 7.915096 13.873466 3
 7.084967 8.269139 15.354100 3
 8.943639 9.813982 18.757622 3
 9.063405 9.701385 18.764801 3
 8.789272 9.702189 18.491482 3
 8.879976 9.577625 18.457609 3
 8.928077 9.695581 18.623674 3
 9.348514 8.469637 17.818161 3
 7.380812 9.350439 16.731249 3
 7.468836 9.518209 16.987053 3
 7.334869 9.455361 16.790230 3
 7.493327 9.372643 16.865976 3
 9.001785 8.516606 17.518414 3
 8.965353 8.661506 17.626871 3
 8.903607 8.562360 17.465982 3
 9.085503 8.581209 17.666708 3
 7.158516 9.235254 16.393778 3
 7.226109 9.365529 16.591627 3
 5.663185 8.228879 13.892076 3
 5.791213 8.162083 13.953310 3
 8.387732 8.693430 17.081175 3
 9.294868 8.933568 18.228462 3
 9.322405 9.700066 19.022470 3
 9.356080 9.550115 18.906214 3
 9.444659 9.701771 19.146423 3
 9.480726 9.589083 19.069817 3
 8.688490 8.584172 17.272676 3
 6.811966 9.642995 16.454945 3
 8.678230 9.297966 17.976225 3
 5.956855 8.621002 14.577862 3
 6.899935 9.120657 16.020586 3
 9.199769 8.809722 18.009504 3
 9.189078 8.646520 17.835608 3
 7.410687 9.658910 17.069605 3
 7.521936 9.691813 17.213732 3
 5.617157 9.754135 15.371286 3
 5.728519 9.697784 15.426297 3
 5.782080 9.823995 15.606079 3
 6.666667 10.000000 16.666668 3
 5.658605 9.881393 15.540000 3
 8.980009 8.994673 17.974701 3
 6.894502 8.629272 15.523768 3
 6.754989 8.622025 15.377007 3
 6.789530 8.518266 15.307788 3
 8.061770 9.128206 17.189974 3
 6.902410 8.501462 15.403868 3
 7.591715 9.599132 17.190847 3
 8.880564 9.289346 18.169939 3
 9.650190 9.662862 19.313072 3
 8.197098 9.755339 17.952446 3
 7.460124 9.079474 16.539602 3
 7.479390 9.224616 16.703993 3
 7.369483 9.136706 16.506189 3
 8.715010 9.002016 17.717052 3
 8.869476 8.919353 17.788855 3
 7.358087 8.091799 15.449884 3
 6.155670 9.054038 15.209706 3
 6.189645 8.950685 15.140326 3
 6.979998 8.732032 15.712034 3
 7.829123 9.124092 16.953222 3
 6.099037 8.875254 14.974292 3
 9.131266 9.788682 18.919966 3
 9.786017 9.135469 18.921480 3
 7.452580 8.715000 16.167578 3
 6.415514 8.787515 15.203022 3
 6.440328 8.675400 15.115719 3
 7.380548 7.964545 15.345093 3
 7.327610 7.829855 15.157460 3
 7.459446 7.887070 15.346508 3
 8.363414 8.990734 17.354158 3
 8.267426 9.061483 17.328915 3
 6.111039 8.111499 14.222548 3
 6.153409 9.522855 15.676255 3
 6.396385 8.457839 14.854222 3
 6.343915 8.611896 14.955813 3
 6.266117 8.525078 14.791199 3
 9.444445 10.000000 19.444445 3
 9.305555 10.000000 19.305555 3
 9.375769 9.846493 19.222254 3
 10.000000 9.305555 19.305555 3
 10.000000 9.444445 19.444445 3
 9.847774 9.376101 19.223881 3
 5.601561 9.025578 14.627141 3
 5.607803 9.159656 14.767461 3
 7.923119 8.516538 16.439655 3
 7.902009 8.402747 16.304741 3
 10.000000 8.472222 18.472221 3
 5.813758 7.908040 13.721807 3
 8.289546 9.451973 17.741539 3
 9.150931 8.167719 17.318653 3
 9.412123 8.248993 17.661118 3
 9.419034 8.375373 17.794422 3
 7.995249 8.344823 16.340071 3
 9.189544 9.629596 18.819153 3
 9.243043 9.770309 19.013365 3
 5.287799 9.750173 15.037977 3
 7.269433 7.976513 15.245944 3
 6.265505 9.053463 15.318959 3
 6.090784 7.860630 13.951408 3
 8.505263 8.750494 17.255777 3
 8.535817 8.623773 17.159603 3
 6.464293 9.583187 16.047493 3
 8.153561 9.019844 17.173405 3
 5.513700 9.525151 15.038856 3
 7.678721 8.743058 16.421776 3
 8.168123 9.386144 17.554272 3
 8.029886 9.428067 17.457962 3
 8.076845 9.273692 17.350548 3
 7.941777 9.321276 17.263048 3
 5.555555 10.000000 15.555555 3
 5.416667 10.000000 15.416667 3
 5.510119 9.866122 15.376244 3
 8.997957 8.295401 17.293367 3
 9.270805 8.205359 17.476158 3
 8.419946 8.576487 16.996447 3
 5.676312 9.257267 14.933577 3
 5.751612 9.154735 14.906344 3
 7.006534 8.433873 15.440403 3
 7.028942 8.053897 15.082835 3
 6.919601 8.113318 15.032924 3
 6.924795 7.945973 14.870772 3
 6.806640 8.055938 14.862581 3
 8.271926 9.284926 17.556860 3
 9.404091 8.558254 17.962345 3
 7.361111 10.000000 17.361111 3
 7.296700 9.920088 17.216795 3
 7.432374 9.886025 17.318409 3
 6.387387 8.152041 14.539428 3
 6.332718 8.297338 14.630051 3
 6.266655 8.219926 14.486585 3
 6.453265 8.234514 14.687779 3
 6.475371 8.127416 14.602788 3
 8.654115 8.866799 17.520943 3
 9.431934 8.772491 18.204430 3
 8.354466 9.100688 17.455168 3
 8.455243 9.059108 17.514380 3
 5.720436 8.623577 14.344018 3
 5.606541 8.533944 14.140497 3
 8.492793 8.512167 17.004967 3
 9.121969 9.285225 18.407228 3
 9.221124 9.180266 18.401394 3
 9.282174 9.297025 18.579199 3
 5.626382 8.655936 14.282326 3
 7.574777 9.791536 17.366327 3
 7.408272 9.765462 17.173719 3
 8.308353 9.756657 18.065016 3
 9.512856 9.909224 19.422079 3
 9.913005 9.513889 19.426891 3
 6.250000 10.000000 16.250000 3
 6.111111 10.000000 16.111111 3
 6.181142 9.858657 16.039818 3
 8.654727 9.690136 18.344879 3
 6.901500 8.367714 15.269212 3
 7.266487 8.507080 15.773566 3
 7.559837 9.099396 16.659229 3
 7.500000 10.000000 17.500000 3
 9.369934 9.169523 18.539476 3
 9.507711 9.150927 18.658642 3
 9.407161 9.290156 18.697327 3
 6.808378 8.875128 15.683500 3
 6.901810 8.967202 15.869017 3
 9.213453 9.470921 18.684391 3
 7.121701 8.888822 16.010529 3
 7.252378 8.899221 16.151602 3
 7.108465 9.000947 16.109417 3
 6.388434 9.671264 16.059702 3
 8.181029 9.167747 17.348787 3
 5.401987 8.855069 14.257061 3
 8.755107 8.897501 17.652624 3
 6.225852 8.136789 14.362639 3
 6.304467 8.089989 14.394456 3
 9.722222 10.000000 19.722221 3
 9.583333 10.000000 19.583332 3
 10.000000 9.583333 19.583332 3
 10.000000 9.722222 19.722221 3
 7.584832 9.331422 16.916260 3
 7.660341 9.421269 17.081617 3
 7.579844 9.484646 17.064487 3
 7.220484 9.031564 16.252054 3
 8.327882 9.567870 17.895771 3
 6.302894 9.706076 16.008978 3
 6.443992 8.575473 15.019472 3
 6.882627 9.886447 16.769060 3
 6.430508 8.018143 14.448646 3
 8.884953 8.758950 17.643927 3
 5.860522 9.198224 15.058746 3
 7.004992 9.053137 16.058130 3
 7.022418 9.191932 16.214338 3
 6.303124 8.424181 14.727305 3
 5.982752 9.153278 15.136030 3
 7.666224 8.507869 16.174093 3
 7.710230 8.424544 16.134775 3
 7.797597 8.493773 16.291376 3
 5.972222 10.000000 15.972221 3
 5.898700 9.885500 15.784199 3
 6.060734 9.888889 15.949622 3
 7.271050 9.722310 16.993357 3
 7.253049 9.606718 16.859774 3
 7.083333 10.000000 17.083332 3
 7.079720 9.858798 16.938513 3
 7.202360 9.863933 17.066286 3
 6.232851 8.354238 14.587091 3
 6.092814 8.423142 14.515960 3
 7.781382 9.697988 17.479378 3
 7.656583 9.697560 17.354153 3
 5.906887 8.149755 14.056653 3
 8.844609 9.791304 18.635935 3
 8.541244 8.860346 17.401606 3
 7.222222 10.000000 17.222221 3
 7.764816 9.034150 16.798964 3
 8.055555 10.000000 18.055555 3
 7.705776 8.620243 16.326027 3
 6.916779 9.288080 16.204857 3
 7.154130 9.733686 16.887808 3
 7.124003 9.594628 16.718634 3
 7.778578 9.234900 17.013485 3
 7.881345 9.226439 17.107780 3
 7.806282 9.365907 17.172209 3
 6.297576 8.948071 15.245646 3
 6.219924 8.820246 15.040167 3
 8.004167 8.605570 16.609732 3
 7.719052 9.561968 17.281031 3
 5.389453 9.894346 15.283803 3
 6.841384 7.754109 14.595495 3
 6.862159 7.857463 14.719617 3
 5.836073 9.651634 15.487699 3
 5.519876 8.638554 14.158438 3
 6.985586 7.796449 14.782034 3
 7.058541 7.923673 14.982209 3
 7.376606 9.243668 16.620270 3
 6.138964 8.533108 14.672076 3
 6.067565 8.626242 14.693816 3
 7.329925 8.650030 15.979958 3
 7.874085 9.884976 17.759060 3
 7.355088 9.564360 16.919447 3
 6.817110 8.413960 15.231071 3
 5.720968 9.035899 14.756867 3
 9.089998 9.179560 18.269592 3
 6.099948 9.147806 15.247746 3
 5.375149 9.146306 14.521464 3
 7.384907 8.518030 15.902932 3
 6.624095 9.338402 15.962501 3
 6.244683 9.457056 15.701737 3
 9.027778 10.000000 19.027779 3
 10.000000 9.027778 19.027779 3
 8.781221 9.350517 18.131765 3
 9.001717 9.294336 18.296070 3
 8.901231 9.415819 18.317085 3
 8.789835 9.467961 18.257809 3
 6.100932 9.407632 15.508562 3
 6.199639 9.344516 15.544155 3
 7.041790 9.729144 16.770939 3
 6.395429 7.818680 14.214103 3
 6.379520 7.921695 14.301215 3
 7.482370 8.449934 15.932299 3
 5.327545 8.743096 14.070653 3
 5.480383 8.766965 14.247350 3
 5.774346 8.272356 14.046712 3
 5.567767 9.303588 14.871355 3
 5.444541 9.386308 14.830853 3
 5.476700 9.225661 14.702367 3
 7.467947 8.026443 15.494382 3
 7.316314 9.819341 17.135662 3
 7.987757 8.241926 16.229677 3
 8.092755 8.164125 16.256880 3
 7.862401 8.622876 16.485275 3
 7.795235 8.738968 16.534195 3
 8.585171 8.996217 17.581398 3
 6.054611 9.284513 15.339124 3
 6.808969 7.939981 14.748948 3
 9.719251 9.037647 18.756901 3
 9.592237 9.045720 18.637968 3
 6.336432 8.839258 15.175689 3
 9.200950 8.995839 18.196808 3
 7.981822 9.210610 17.192442 3
 7.004952 9.625604 16.630545 3
 7.973966 9.793027 17.767000 3
 7.926123 9.647036 17.573168 3
 8.071431 9.707599 17.779037 3
 8.057083 9.574646 17.631746 3
 7.563559 8.551735 16.115286 3
 6.780162 8.311740 15.091903 3
 5.694445 10.000000 15.694445 3
 7.515350 8.324350 15.839705 3
 7.409687 8.238256 15.647941 3
 7.575780 8.206882 15.782651 3
 7.473275 8.137273 15.610548 3
 7.855938 9.773578 17.629526 3
 5.284117 8.831192 14.115317 3
 5.384756 8.631455 14.016214 3
 9.067988 9.416265 18.484253 3
 9.045720 9.592237 18.637985 3
 9.700743 8.660844 18.361589 3
 9.695756 8.787876 18.483644 3
 5.870399 9.754210 15.624611 3
 5.993177 9.780726 15.773902 3
 6.730762 8.424308 15.155066 3
 6.008992 8.708517 14.717513 3
 6.106747 8.749391 14.856144 3
 6.201482 8.650692 14.852179 3
 9.195999 9.364137 18.560154 3
 9.815688 8.941504 18.757187 3
 9.288770 9.063309 18.352098 3
 9.562283 8.942449 18.504745 3
 6.324863 8.732353 15.057217 3
 5.576140 8.729132 14.305277 3
 7.683282 9.289816 16.973099 3
 9.411857 9.411857 18.823730 3
 9.486769 9.490499 18.977282 3
 5.713191 8.365657 14.078869 3
 7.389845 8.909194 16.299036 3
 7.382853 8.800762 16.183609 3
 7.606037 8.950572 16.556608 3
 7.479389 8.979532 16.458923 3
 7.277528 8.773541 16.051060 3
 7.460085 8.602646 16.062729 3
 6.441116 8.889874 15.330987 3
 8.587319 8.288657 16.875967 3
 6.723753 9.719796 16.443544 3
 6.604926 9.764725 16.369650 3
 5.590402 8.831272 14.421677 3
 7.130146 9.110865 16.241007 3
 7.266002 9.152352 16.418360 3
 8.969739 9.506767 18.476522 3
 9.032669 8.395570 17.428242 3
 8.505053 8.391668 16.896721 3
 5.640282 9.603033 15.243315 3
 8.798096 8.528203 17.326296 3
 6.494907 7.791564 14.286466 3
 7.916667 10.000000 17.916668 3
 5.958299 8.386499 14.344810 3
 10.000000 10.000000 20.000000 3
 9.861111 10.000000 19.861111 3
 9.892176 9.892176 19.784349 3
 10.000000 9.861111 19.861111 3
 6.953569 9.795262 16.748833 3
 6.845856 9.760732 16.606594 3
 9.113083 9.518191 18.631285 3
 8.702957 8.452410 17.155378 3
 7.858946 8.846169 16.705109 3
 7.725531 8.872280 16.597809 3
 7.346021 9.026924 16.372934 3
 6.842145 8.742575 15.584720 3
 9.895024 8.848654 18.743673 3
 8.849010 9.894740 18.743744 3
 7.989208 8.853703 16.842922 3
 6.265494 7.724443 13.989923 3
 6.428321 7.684815 14.113102 3
 6.164565 9.233966 15.398523 3
 7.761899 9.464337 17.226242 3
 7.123057 8.487046 15.610102 3
 5.151985 9.824062 14.976044 3
 5.284987 9.862564 15.147553 3
 8.291677 9.171988 17.463676 3
 9.305600 9.407574 18.713181 3
 6.706133 7.730347 14.436481 3
 5.138889 10.000000 15.138889 3
 5.070296 9.897686 14.967985 3
 5.198089 9.915951 15.114038 3
 6.303110 9.885636 16.188745 3
 6.929001 8.841491 15.770488 3
 8.146068 9.499043 17.645123 3
 8.165795 9.623449 17.789267 3
 6.205282 8.463008 14.668290 3
 6.498373 9.849589 16.347979 3
 6.485882 9.713652 16.199535 3
 6.379928 9.784677 16.164608 3
 6.527778 10.000000 16.527779 3
 6.405153 9.898450 16.303606 3
 9.772626 9.248697 19.021336 3
 7.657934 9.067125 16.725067 3
 8.603163 8.493831 17.097004 3
 6.532987 8.414411 14.947399 3
 7.935765 8.731040 16.666809 3
 9.085225 8.050256 17.135473 3
 6.388889 10.000000 16.388889 3
 7.612805 9.195540 16.808359 3
 7.660402 8.315230 15.975630 3
 7.803555 8.367072 16.170626 3
 7.778971 8.259164 16.038128 3
 5.997921 9.375944 15.373860 3
 9.786070 8.846450 18.632530 3
 7.102448 7.810996 14.913446 3
 6.303704 7.978455 14.282158 3
 6.264444 9.787251 16.051704 3
 9.784898 9.911309 19.696201 3
 9.908722 9.780123 19.688829 3
 9.170499 9.091424 18.261936 3
 6.019511 8.795521 14.815032 3
 6.096767 9.787628 15.884395 3
 8.573744 8.175099 16.748835 3
 8.621593 8.387638 17.009226 3
 7.276907 9.262949 16.539860 3
 5.277778 10.000000 15.277779 3
 7.861919 9.508206 17.370138 3
 7.967513 9.517891 17.485413 3
 7.236239 9.498988 16.735233 3
 7.181079 7.889103 15.070174 3
 8.240347 9.555644 17.796003 3
 7.146385 8.006252 15.152640 3
 9.680498 8.920775 18.601278 3
 10.000000 8.888889 18.888889 3
 8.888889 10.000000 18.888889 3
 6.578643 9.915918 16.494560 3
 6.910433 9.478945 16.389362 3
 8.731964 9.111744 17.843733 3
 7.598155 8.429619 16.027777 3
 5.833333 10.000000 15.833333 3
 6.690825 8.109853 14.800679 3
 8.467096 8.941441 17.408556 3
 8.469419 8.267972 16.737381 3
 7.830669 9.606924 17.437601 3
 7.056210 8.818560 15.874765 3
 8.280940 9.651610 17.932562 3
 7.020594 8.927916 15.948516 3
 9.473185 8.467130 17.940323 3
 6.276409 9.249656 15.526067 3
 5.448535 8.493784 13.942338 3
 7.712763 9.154874 16.867655 3
 9.598125 8.847374 18.445499 3
 6.944445 10.000000 16.944445 3
 6.422322 8.355339 14.777658 3
 9.583376 8.473415 18.056805 3
 9.527425 8.347806 17.875229 3
 5.565848 9.414798 14.980651 3
 8.174481 9.278128 17.452623 3
 6.987856 9.906951 16.894800 3
 7.919417 9.419112 17.338516 3
 7.968060 8.127023 16.095064 3
 6.907895 9.580243 16.488148 3
 7.000827 8.307480 15.308311 3
 6.901956 8.237766 15.139732 3
 6.800545 8.175446 14.975987 3
 7.804010 8.931683 16.735689 3
 7.705962 8.971114 16.677073 3
 5.763889 9.924757 15.688647 3
 6.192368 7.834031 14.026395 3
 6.289138 7.868203 14.157338 3
 5.727032 9.496281 15.223308 3
 5.626346 9.486788 15.113133 3
 5.761691 9.596926 15.358623 3
 8.642211 9.086759 17.729004 3
 7.763533 8.158393 15.921924 3
 7.846719 8.090850 15.937567 3
 7.983394 9.908610 17.892015 3
 5.676509 9.380824 15.057333 3
 7.010829 8.189888 15.200720 3
 5.534955 8.410294 13.945272 3
 6.056384 9.693966 15.750355 3
 7.688800 8.220469 15.909262 3
 5.581451 8.925284 14.506741 3
 5.636427 8.427858 14.064303 3
 6.571133 7.724998 14.296135 3
 8.953975 9.916777 18.870752 3
 9.918360 8.952032 18.870401 3
 7.178983 8.806170 15.985148 3
 5.591185 8.333581 13.924787 3
 6.217739 9.146187 15.363918 3
 5.508369 8.877736 14.386114 3
 6.922500 9.688689 16.611193 3
 7.102002 8.371950 15.473957 3
 6.198315 7.931916 14.130231 3
 9.095088 8.995237 18.090345 3
 7.889706 8.301809 16.191513 3
 7.870694 8.195121 16.065817 3
 6.212695 8.034580 14.247281 3
 1 2 3 
 4 5 6 
 2 7 3 
 8 9 10 
 9 11 10 
 12 13 14 
 15 5 4 
 13 16 14 
 17 18 19 
 20 19 18 
 21 22 23 
 24 25 26 
 27 26 25 
 28 29 30 
 31 32 33 
 34 35 36 
 37 38 5 
 39 40 41 
 42 43 44 
 45 46 47 
 48 49 50 
 45 47 51 
 21 52 22 
 53 10 54 
 55 56 57 
 58 11 9 
 54 10 11 
 39 41 59 
 60 61 62 
 63 62 61 
 64 65 66 
 67 68 69 
 70 71 30 
 28 30 71 
 31 72 32 
 73 74 75 
 76 75 74 
 67 69 77 
 78 79 10 
 80 81 82 
 42 83 43 
 2 84 85 
 86 87 88 
 89 90 91 
 92 89 91 
 93 94 15 
 95 96 97 
 98 99 100 
 101 10 79 
 78 61 79 
 60 79 61 
 102 103 104 
 105 106 107 
 108 109 110 
 111 112 113 
 41 113 112 
 114 115 116 
 117 118 119 
 120 121 122 
 123 55 57 
 48 124 49 
 125 5 15 
 108 126 109 
 127 128 129 
 95 130 96 
 131 132 133 
 28 134 135 
 28 135 29 
 63 61 136 
 137 138 139 
 140 58 9 
 130 141 142 
 143 144 145 
 146 147 148 
 149 139 138 
 143 150 144 
 84 151 85 
 93 15 52 
 152 153 154 
 154 153 131 
 155 156 157 
 158 159 160 
 161 160 159 
 28 162 134 
 73 75 59 
 163 83 164 
 165 142 141 
 166 128 127 
 76 167 75 
 95 97 168 
 146 169 147 
 170 171 172 
 173 57 56 
 161 33 32 
 171 174 172 
 130 142 175 
 102 176 103 
 177 105 107 
 178 179 180 
 78 10 53 
 181 182 183 
 184 185 142 
 101 8 10 
 186 187 188 
 189 185 184 
 190 66 113 
 89 19 191 
 192 193 194 
 155 157 68 
 36 35 195 
 111 113 66 
 196 197 198 
 199 200 201 
 197 202 198 
 203 204 205 
 206 207 208 
 205 204 185 
 209 43 83 
 210 211 118 
 212 213 214 
 48 215 133 
 42 164 83 
 216 217 218 
 219 217 216 
 220 221 222 
 223 221 220 
 224 225 172 
 170 172 225 
 226 193 227 
 78 228 61 
 229 188 187 
 230 231 232 
 233 232 231 
 95 141 130 
 234 88 87 
 2 1 84 
 235 84 1 
 236 39 75 
 19 237 191 
 37 238 38 
 75 39 59 
 132 239 240 
 241 217 242 
 243 244 245 
 98 246 99 
 243 245 247 
 248 195 35 
 249 250 251 
 114 252 115 
 249 251 253 
 146 240 239 
 254 242 217 
 34 36 255 
 256 175 142 
 257 82 81 
 258 259 260 
 261 262 35 
 146 148 221 
 42 44 263 
 264 144 265 
 16 266 14 
 115 267 116 
 268 265 144 
 69 68 157 
 137 104 103 
 190 107 106 
 125 157 156 
 41 112 59 
 269 119 118 
 270 122 121 
 271 182 181 
 137 139 104 
 190 106 66 
 272 273 157 
 69 157 273 
 229 239 132 
 274 275 276 
 63 277 278 
 206 279 207 
 125 15 94 
 201 200 280 
 281 282 283 
 284 285 286 
 287 288 289 
 290 291 110 
 292 293 101 
 249 14 266 
 64 66 106 
 294 104 139 
 26 207 279 
 6 5 38 
 65 82 66 
 192 295 208 
 192 208 207 
 73 112 296 
 269 118 211 
 297 49 71 
 298 299 50 
 293 300 101 
 269 301 302 
 166 303 128 
 274 263 304 
 93 305 94 
 206 208 306 
 307 228 308 
 309 201 23 
 269 211 301 
 63 278 310 
 24 26 279 
 311 129 128 
 312 183 182 
 229 132 188 
 313 314 315 
 316 315 314 
 317 318 319 
 28 320 162 
 321 49 297 
 50 49 321 
 61 228 136 
 228 322 308 
 158 323 324 
 249 253 14 
 325 14 253 
 326 327 328 
 329 328 327 
 73 330 74 
 133 215 331 
 203 286 232 
 230 232 286 
 332 333 334 
 335 336 337 
 51 338 339 
 86 340 87 
 131 341 132 
 342 343 74 
 76 74 343 
 344 345 17 
 78 53 322 
 346 322 53 
 347 348 349 
 350 345 344 
 351 334 352 
 111 66 353 
 351 352 242 
 284 286 354 
 288 355 289 
 335 338 336 
 351 198 202 
 356 357 358 
 212 40 213 
 190 359 107 
 212 107 359 
 325 253 360 
 163 164 361 
 258 362 259 
 363 332 334 
 114 62 310 
 364 365 366 
 37 367 368 
 97 366 365 
 369 231 301 
 230 301 231 
 370 371 372 
 309 373 201 
 374 315 252 
 375 109 126 
 261 376 262 
 377 378 337 
 379 380 205 
 381 382 184 
 383 384 385 
 63 310 62 
 372 371 386 
 112 387 296 
 219 383 385 
 199 201 388 
 50 299 215 
 281 389 282 
 98 100 390 
 123 391 55 
 86 392 262 
 148 262 392 
 158 324 393 
 394 395 238 
 146 221 223 
 281 283 396 
 397 159 393 
 398 399 400 
 132 240 133 
 401 402 403 
 241 404 405 
 229 169 239 
 222 221 88 
 378 335 337 
 406 407 408 
 24 409 410 
 397 145 144 
 15 4 52 
 411 198 412 
 351 412 198 
 27 413 26 
 212 214 414 
 340 415 87 
 415 307 87 
 335 339 338 
 416 406 408 
 417 116 267 
 80 418 81 
 419 398 400 
 274 304 275 
 420 7 38 
 421 422 405 
 423 424 425 
 24 410 25 
 426 265 427 
 60 428 79 
 101 79 428 
 384 429 385 
 420 38 238 
 421 404 408 
 318 430 319 
 17 19 344 
 67 250 68 
 317 319 247 
 71 49 320 
 173 431 432 
 24 279 377 
 433 32 72 
 434 345 350 
 435 436 328 
 437 260 259 
 438 439 20 
 410 438 20 
 48 240 223 
 12 361 440 
 196 198 441 
 89 344 19 
 125 156 5 
 37 5 156 
 241 405 442 
 443 360 253 
 324 291 444 
 290 444 291 
 48 50 215 
 268 427 265 
 347 445 348 
 264 446 144 
 108 110 447 
 448 440 361 
 41 40 359 
 2 85 449 
 22 449 85 
 201 450 23 
 117 451 118 
 452 120 122 
 298 50 321 
 34 453 236 
 268 144 150 
 192 227 193 
 73 59 112 
 34 236 167 
 347 454 445 
 36 445 454 
 394 238 368 
 37 368 238 
 455 213 456 
 457 450 280 
 143 145 444 
 203 354 286 
 165 289 355 
 316 425 424 
 457 458 450 
 421 459 422 
 460 55 461 
 448 164 462 
 375 463 464 
 226 227 465 
 324 444 145 
 466 467 468 
 274 469 263 
 470 334 333 
 448 361 164 
 471 472 8 
 397 144 446 
 473 474 419 
 312 419 474 
 470 408 404 
 261 475 340 
 146 239 169 
 397 476 159 
 173 432 477 
 270 168 478 
 479 478 168 
 426 427 480 
 229 481 169 
 315 482 252 
 483 422 459 
 484 485 486 
 487 486 485 
 488 419 182 
 312 182 419 
 45 489 46 
 490 317 247 
 101 300 8 
 421 405 404 
 254 385 429 
 48 133 240 
 20 237 19 
 24 377 337 
 491 492 493 
 494 493 492 
 411 495 198 
 375 496 463 
 21 23 450 
 463 497 464 
 347 498 454 
 455 454 498 
 499 214 213 
 137 103 500 
 501 500 103 
 245 244 502 
 27 18 465 
 89 92 344 
 434 464 497 
 503 403 402 
 22 85 23 
 46 489 504 
 505 439 506 
 507 506 439 
 369 498 508 
 397 393 145 
 509 122 478 
 484 486 81 
 257 81 486 
 152 500 153 
 491 164 492 
 42 492 164 
 248 35 262 
 290 110 109 
 44 304 263 
 364 510 187 
 229 187 510 
 186 511 187 
 110 291 468 
 505 191 237 
 37 156 367 
 347 508 498 
 507 282 512 
 434 350 513 
 423 425 514 
 364 187 365 
 479 365 187 
 515 516 231 
 433 502 244 
 17 517 18 
 471 8 300 
 518 371 519 
 473 419 400 
 520 362 521 
 515 366 96 
 97 96 366 
 347 349 508 
 248 262 147 
 47 338 51 
 522 519 371 
 507 283 282 
 285 119 286 
 287 289 121 
 350 344 92 
 364 349 348 
 448 462 523 
 426 524 94 
 210 214 211 
 29 135 525 
 69 389 77 
 100 99 526 
 527 526 99 
 381 184 355 
 380 354 205 
 420 395 172 
 224 172 395 
 528 92 91 
 394 529 395 
 69 273 389 
 386 530 529 
 224 529 530 
 499 213 531 
 55 391 461 
 268 506 427 
 507 427 506 
 426 94 305 
 532 162 320 
 326 328 436 
 491 462 164 
 455 531 213 
 346 53 533 
 148 147 262 
 311 534 129 
 222 535 162 
 270 478 122 
 420 238 395 
 364 366 349 
 165 355 184 
 203 205 354 
 313 330 296 
 73 296 330 
 397 446 476 
 88 221 392 
 309 85 151 
 507 512 427 
 527 151 84 
 134 162 535 
 460 536 55 
 537 196 441 
 20 18 538 
 218 225 216 
 539 540 541 
 539 541 542 
 543 390 544 
 165 141 289 
 95 289 141 
 335 378 391 
 241 352 404 
 307 136 228 
 369 545 498 
 230 302 301 
 234 546 535 
 547 548 474 
 312 474 548 
 518 549 371 
 155 250 550 
 249 550 250 
 374 252 310 
 114 310 252 
 176 551 103 
 177 107 552 
 547 553 116 
 114 116 553 
 460 554 555 
 556 458 476 
 457 476 458 
 114 553 62 
 48 223 124 
 384 557 429 
 386 371 549 
 386 549 530 
 12 558 361 
 499 301 211 
 559 303 560 
 12 14 558 
 74 330 561 
 97 365 168 
 479 168 365 
 233 231 516 
 435 328 432 
 501 153 500 
 125 524 157 
 60 62 553 
 479 187 511 
 515 231 562 
 527 84 526 
 235 526 84 
 146 223 240 
 173 563 431 
 564 565 566 
 22 52 4 
 356 358 567 
 568 368 367 
 487 569 570 
 571 410 409 
 527 572 573 
 574 573 572 
 575 576 572 
 230 286 302 
 95 577 289 
 488 523 462 
 324 323 291 
 532 49 124 
 65 80 82 
 6 38 7 
 198 495 441 
 520 578 362 
 234 308 579 
 100 544 390 
 2 449 7 
 6 7 449 
 213 40 456 
 384 514 425 
 27 538 18 
 18 517 465 
 67 77 580 
 547 474 581 
 473 581 474 
 421 408 407 
 36 454 255 
 342 278 277 
 329 477 328 
 163 361 558 
 297 71 582 
 67 580 46 
 575 583 576 
 584 259 362 
 455 498 531 
 426 480 524 
 411 412 429 
 254 429 412 
 399 585 586 
 587 586 585 
 60 581 428 
 473 428 581 
 161 159 588 
 357 403 358 
 212 414 107 
 501 103 589 
 435 590 436 
 591 391 378 
 86 376 340 
 261 340 376 
 199 592 358 
 379 205 593 
 189 593 205 
 189 184 594 
 382 594 184 
 595 348 445 
 31 33 280 
 457 280 33 
 268 150 596 
 199 358 597 
 285 117 119 
 120 287 121 
 29 525 598 
 272 157 524 
 599 525 135 
 234 579 546 
 192 194 295 
 515 562 366 
 349 366 562 
 466 468 291 
 225 600 216 
 243 247 319 
 256 142 185 
 70 582 71 
 307 415 136 
 212 359 40 
 158 393 159 
 143 90 150 
 420 3 7 
 243 129 534 
 346 579 308 
 318 601 430 
 601 560 430 
 342 74 561 
 602 603 485 
 170 225 604 
 218 604 225 
 605 275 304 
 335 391 339 
 606 570 569 
 473 292 428 
 326 607 43 
 509 478 608 
 176 609 551 
 610 177 552 
 410 20 538 
 25 410 538 
 369 562 231 
 527 611 572 
 583 356 567 
 189 205 185 
 165 184 142 
 559 566 565 
 219 216 259 
 437 259 216 
 256 185 204 
 27 25 538 