TITLE      =  "2D FE Unstructured grid data" 
VARIABLES = "X", "Y", "U", "Dom" 
ZONE T="P1", F=FEPOINT, N= 299 E= 534  ET=TRIANGLE 
 8.247979 6.817800 15.065761 15
 8.113981 6.873288 14.987252 15
 8.217145 6.704888 14.922015 15
 8.089259 6.724121 14.813360 15
 9.238634 6.557529 15.796137 15
 9.209997 6.687902 15.897882 15
 9.073569 6.634866 15.708423 15
 9.437507 7.231271 16.668762 15
 9.319554 7.073822 16.393364 15
 9.461488 7.110020 16.571505 15
 9.295344 7.235176 16.530504 15
 9.128688 6.469355 15.598026 15
 8.627259 5.314714 13.941947 15
 8.528218 5.353157 13.881355 15
 8.491294 5.224998 13.716272 15
 9.130545 5.131914 14.262442 15
 9.106349 4.979466 14.085795 15
 9.232071 5.051641 14.283689 15
 8.627939 5.212504 13.840423 15
 8.517939 6.968341 15.486262 15
 8.467883 6.821981 15.289840 15
 8.634856 6.903939 15.538772 15
 9.218946 7.016593 16.235527 15
 9.114326 7.037601 16.151911 15
 9.116414 6.888556 16.004946 15
 8.599419 6.770926 15.370327 15
 8.554075 6.198953 14.753003 15
 8.398484 6.284443 14.682903 15
 8.440294 6.124748 14.565022 15
 9.782336 6.375421 16.157740 15
 9.714513 6.491006 16.205511 15
 9.647049 6.309723 15.956760 15
 8.889911 6.068428 14.958315 15
 8.876207 5.943291 14.819476 15
 9.011252 6.006241 15.017466 15
 9.449766 6.670732 16.120489 15
 9.491693 6.805404 16.297066 15
 9.328373 6.770059 16.098415 15
 8.370704 5.826476 14.197160 15
 8.212707 5.784408 13.997098 15
 8.353352 5.703722 14.057062 15
 9.655478 5.224209 14.879679 15
 9.658634 5.078186 14.736819 15
 9.803578 5.156919 14.960499 15
 9.516789 5.717927 15.234702 15
 9.396482 5.642149 15.038618 15
 9.580210 5.622232 15.202420 15
 9.512300 5.505040 15.017327 15
 9.573372 6.456118 16.029480 15
 9.475797 6.554090 16.029865 15
 9.598319 6.671058 16.269365 15
 8.641073 7.230170 15.871231 15
 8.528239 7.101644 15.629864 15
 8.660903 7.060245 15.721127 15
 8.537523 6.316555 14.854053 15
 10.000000 6.805555 16.805555 15
 9.831214 6.780807 16.612019 15
 9.877488 6.669086 16.546583 15
 8.998612 6.515900 15.514493 15
 8.508942 5.730789 14.239708 15
 8.491449 5.882424 14.373850 15
 9.510895 6.232086 15.742972 15
 9.597271 6.130297 15.727555 15
 9.711719 6.175150 15.886861 15
 9.758457 7.177536 16.935986 15
 9.807975 7.302424 17.110395 15
 9.676048 7.282984 16.959017 15
 8.392323 7.113672 15.505976 15
 8.491088 7.224000 15.715065 15
 8.321747 7.212061 15.533792 15
 9.026536 5.614038 14.640552 15
 9.006129 5.434222 14.440320 15
 9.121614 5.499931 14.621517 15
 9.389372 6.885819 16.275179 15
 9.276552 6.921955 16.198490 15
 9.633027 6.555438 16.188450 15
 8.893339 5.523998 14.417317 15
 9.389235 6.324122 15.713339 15
 9.279037 6.403996 15.683020 15
 9.273932 6.211929 15.485847 15
 9.151763 6.320628 15.472375 15
 9.203280 7.127573 16.330832 15
 9.875747 7.204134 17.079878 15
 8.397983 5.325667 13.723632 15
 8.480675 5.451016 13.931668 15
 8.331640 5.457134 13.788760 15
 8.248270 5.643020 13.891273 15
 9.789417 5.397940 15.187355 15
 9.743815 5.500126 15.243937 15
 9.629246 5.391258 15.020494 15
 9.239473 5.574383 14.813838 15
 9.357913 5.466718 14.824615 15
 9.026397 7.154194 16.180582 15
 8.993132 6.994118 15.987242 15
 9.166834 6.086993 15.253806 15
 9.019207 6.168121 15.187304 15
 8.390642 6.695442 15.086058 15
 8.346403 6.799728 15.146106 15
 9.740313 5.638144 15.378448 15
 9.818915 5.770711 15.589617 15
 9.723989 5.769244 15.493222 15
 8.470879 5.998748 14.469606 15
 8.331203 6.030407 14.361588 15
 8.011275 6.557845 14.569103 15
 7.986753 6.414214 14.400951 15
 8.128344 6.504840 14.633165 15
 8.153173 6.393335 14.546486 15
 8.735496 6.378618 15.114090 15
 8.753009 6.218511 14.971493 15
 8.849186 6.340629 15.189795 15
 8.799455 6.008124 14.807553 15
 8.295546 6.352772 14.648301 15
 8.221743 6.270603 14.492327 15
 10.000000 6.666667 16.666668 15
 8.210576 7.000502 15.211057 15
 8.259361 7.106859 15.366200 15
 8.104674 7.104176 15.208835 15
 8.608825 5.841091 14.449893 15
 8.750695 5.904475 14.655149 15
 8.598965 5.957848 14.556791 15
 9.878208 5.660171 15.538383 15
 8.868824 6.204435 15.073236 15
 8.291259 6.184776 14.476021 15
 9.364298 5.069196 14.433482 15
 9.521749 5.133544 14.655281 15
 9.405770 5.171740 14.577497 15
 8.746495 5.791094 14.537566 15
 8.322412 6.618354 14.940746 15
 8.929633 6.639293 15.568905 15
 8.847431 6.494970 15.342376 15
 8.786765 6.643507 15.430249 15
 9.643438 5.532288 15.175716 15
 8.990396 5.045081 14.035445 15
 8.747341 7.151793 15.899113 15
 8.648005 5.639409 14.287383 15
 8.803871 5.700864 14.504709 15
 8.645694 5.751071 14.396747 15
 9.643176 6.816199 16.459360 15
 9.038133 5.778345 14.816456 15
 8.926873 5.746908 14.673749 15
 9.407954 6.992599 16.400536 15
 9.443776 5.274645 14.718405 15
 9.352675 5.348751 14.701410 15
 9.293259 5.209572 14.502810 15
 8.960310 5.866012 14.826305 15
 8.948379 6.302454 15.250805 15
 8.703649 6.529664 15.233291 15
 9.035880 6.385995 15.421850 15
 9.749074 5.293266 15.042338 15
 9.599318 7.152754 16.752064 15
 8.573090 6.070598 14.643668 15
 8.410294 5.534955 13.945233 15
 9.507947 6.351065 15.859003 15
 9.136582 5.963425 15.099992 15
 9.259523 5.967681 15.227188 15
 9.387253 6.096727 15.483963 15
 9.282792 6.069672 15.352446 15
 10.000000 5.416667 15.416667 15
 10.000000 5.555555 15.555555 15
 9.862366 5.518735 15.381095 15
 8.873552 5.163724 14.037249 15
 9.017595 5.197884 14.215458 15
 8.943007 5.300575 14.243553 15
 9.305101 5.776990 15.082069 15
 9.427407 5.788477 15.215869 15
 9.403490 6.204954 15.608431 15
 8.391196 6.923357 15.314539 15
 9.206174 6.801451 16.007608 15
 10.000000 7.361111 17.361111 15
 9.884402 7.430390 17.314785 15
 9.916790 7.300453 17.217243 15
 8.699404 6.020217 14.719605 15
 9.143147 5.736123 14.879249 15
 9.184378 5.857446 15.041803 15
 10.000000 6.111111 16.111111 15
 10.000000 6.250000 16.250000 15
 9.862522 6.180937 16.043463 15
 9.060925 5.898763 14.959662 15
 8.893772 5.636862 14.530609 15
 8.600173 6.425545 15.025693 15
 9.238060 5.686774 14.924809 15
 8.860770 7.173469 16.034233 15
 8.851854 7.031663 15.883496 15
 8.795938 5.589827 14.385740 15
 8.834460 5.291018 14.125447 15
 9.886647 6.882835 16.769484 15
 9.153767 5.622250 14.775996 15
 8.747673 7.001902 15.749551 15
 8.875700 6.782248 15.657917 15
 9.000566 6.760541 15.761088 15
 8.192064 7.196077 15.388119 15
 8.784682 6.896964 15.681624 15
 8.725403 6.775643 15.501016 15
 9.336540 5.877294 15.213816 15
 10.000000 5.972222 15.972221 15
 9.890016 6.067082 15.957095 15
 9.884097 5.897996 15.782088 15
 10.000000 7.083333 17.083332 15
 9.858798 7.079720 16.938509 15
 8.010467 7.001027 15.011481 15
 7.938938 6.872695 14.811610 15
 10.000000 7.222222 17.222221 15
 9.476225 5.378482 14.854694 15
 8.877501 5.404268 14.281750 15
 8.761273 5.468201 14.229448 15
 8.984689 6.868281 15.852948 15
 9.894346 5.389453 15.283804 15
 9.240016 5.359257 14.599256 15
 8.901613 6.914772 15.816360 15
 9.557239 5.283425 14.840652 15
 8.297964 5.907558 14.205506 15
 9.624385 7.011266 16.635649 15
 9.720688 7.050440 16.771116 15
 8.626511 5.438052 14.064537 15
 8.739789 5.350778 14.090540 15
 9.647109 5.717340 15.364446 15
 9.346112 6.510459 15.856551 15
 9.334600 6.631521 15.966103 15
 9.218525 5.468232 14.686739 15
 10.000000 5.694445 15.694445 15
 8.237376 6.574747 14.812103 15
 8.260412 6.466754 14.727146 15
 8.372476 6.533932 14.906382 15
 9.786703 5.994103 15.780801 15
 8.112045 6.987551 15.099577 15
 8.265223 6.914089 15.179295 15
 8.547714 5.569932 14.117627 15
 8.370759 6.427242 14.797985 15
 8.471024 6.393604 14.864608 15
 9.161214 5.261732 14.422928 15
 9.048803 5.312334 14.361115 15
 8.071892 6.321529 14.393408 15
 8.648626 6.277834 14.926435 15
 7.996258 6.763969 14.760209 15
 8.675888 5.541084 14.216951 15
 9.428583 6.433308 15.861871 15
 8.425138 7.016284 15.441400 15
 9.476728 6.925831 16.402550 15
 9.764725 6.604926 16.369642 15
 9.719796 6.723753 16.443541 15
 7.998260 6.668141 14.666385 15
 7.906146 6.626646 14.532773 15
 8.516747 6.686068 15.202789 15
 8.661390 6.660290 15.321649 15
 9.775592 6.264836 16.040422 15
 8.391885 5.929610 14.321474 15
 9.121345 6.754663 15.875988 15
 8.581032 6.579071 15.160074 15
 8.737043 5.234947 13.971970 15
 7.895785 7.002352 14.898122 15
 9.139549 6.204449 15.343987 15
 9.797285 6.954320 16.751602 15
 9.755142 6.843324 16.598461 15
 9.861631 5.285372 15.147000 15
 10.000000 5.138889 15.138889 15
 9.914859 5.194705 15.109565 15
 9.893568 5.066491 14.960059 15
 9.885636 6.303110 16.188728 15
 8.936102 6.409224 15.345304 15
 9.854586 6.498920 16.353485 15
 10.000000 6.527778 16.527779 15
 9.898450 6.405153 16.303589 15
 8.781055 6.104211 14.885241 15
 9.544719 5.824807 15.369507 15
 9.655012 5.846220 15.501224 15
 10.000000 6.388889 16.388889 15
 8.482416 6.500474 14.982865 15
 10.000000 5.000000 15.000000 15
 9.789057 6.096117 15.885177 15
 9.058955 6.276330 15.335264 15
 8.933039 7.088361 16.021389 15
 10.000000 5.277778 15.277779 15
 8.668210 6.148387 14.816573 15
 9.915918 6.578643 16.494547 15
 10.000000 5.833333 15.833333 15
 8.339474 5.584421 13.923879 15
 9.524220 7.030573 16.554789 15
 10.000000 6.944445 16.944445 15
 9.906357 6.987324 16.893673 15
 9.132717 5.389285 14.521984 15
 7.901898 6.730320 14.632198 15
 9.577426 6.911754 16.489168 15
 8.121071 6.622148 14.743199 15
 9.924757 5.763889 15.688642 15
 7.958073 7.099554 15.057607 15
 9.367978 5.986574 15.354541 15
 9.758597 5.873807 15.632402 15
 8.438113 5.630522 14.068620 15
 8.845331 5.824608 14.669910 15
 9.495859 6.116432 15.612283 15
 9.674578 5.954826 15.629398 15
 9.565812 5.926412 15.492214 15
 8.450120 6.602623 15.052723 15
 9.458397 5.899045 15.357430 15
 9.592882 6.025506 15.618379 15
 9.483365 6.009024 15.492377 15
 9.685886 6.927042 16.612926 15
 9.694324 6.063309 15.757626 15
 8.323970 7.012460 15.336407 15
 1 2 3 
 2 4 3 
 5 6 7 
 8 9 10 
 11 9 8 
 12 5 7 
 13 14 15 
 16 17 18 
 19 13 15 
 20 21 22 
 23 24 25 
 26 22 21 
 27 28 29 
 30 31 32 
 33 34 35 
 36 37 38 
 39 40 41 
 42 43 44 
 45 46 47 
 48 47 46 
 49 32 31 
 36 50 51 
 52 53 54 
 27 55 28 
 56 57 58 
 59 12 7 
 60 61 39 
 62 63 32 
 63 64 32 
 65 66 67 
 68 69 70 
 71 72 73 
 60 39 41 
 38 37 74 
 75 23 25 
 51 50 76 
 71 77 72 
 78 79 80 
 81 80 79 
 82 9 11 
 65 83 66 
 84 85 86 
 87 41 40 
 88 89 90 
 91 92 46 
 48 46 92 
 84 15 14 
 20 22 54 
 82 93 24 
 94 24 93 
 95 96 35 
 97 98 3 
 99 100 101 
 102 29 103 
 104 105 106 
 107 106 105 
 108 109 110 
 33 111 34 
 112 113 28 
 114 56 58 
 115 116 117 
 118 119 120 
 99 121 100 
 109 122 110 
 113 123 28 
 124 125 126 
 127 119 118 
 97 3 128 
 59 129 130 
 131 130 129 
 90 89 132 
 16 133 17 
 52 54 134 
 135 136 137 
 52 69 53 
 36 51 37 
 138 37 51 
 71 139 140 
 123 103 29 
 20 54 53 
 75 74 141 
 142 143 144 
 75 141 9 
 34 145 35 
 33 96 122 
 146 122 96 
 108 130 147 
 59 148 12 
 81 12 148 
 42 44 149 
 10 150 8 
 102 151 29 
 88 90 149 
 42 149 90 
 152 86 85 
 78 62 153 
 95 154 155 
 156 80 157 
 158 159 160 
 161 162 163 
 164 46 165 
 156 166 80 
 20 167 21 
 95 155 157 
 127 137 136 
 68 53 69 
 75 168 38 
 169 170 171 
 84 14 85 
 172 120 119 
 71 173 139 
 164 174 173 
 175 176 177 
 75 25 168 
 178 35 145 
 60 118 61 
 71 140 179 
 142 144 126 
 108 147 180 
 27 29 151 
 164 181 46 
 78 166 62 
 48 90 132 
 182 134 183 
 184 136 135 
 161 163 185 
 56 186 57 
 91 187 73 
 183 134 188 
 81 79 12 
 131 129 189 
 190 189 129 
 191 117 116 
 192 22 193 
 164 194 174 
 195 196 197 
 198 83 199 
 200 201 2 
 198 202 83 
 131 147 130 
 48 203 90 
 204 77 205 
 71 73 187 
 107 113 112 
 95 35 154 
 190 206 189 
 155 174 194 
 33 35 96 
 158 160 207 
 159 121 160 
 184 205 77 
 208 144 143 
 189 206 209 
 99 47 132 
 42 90 210 
 39 211 40 
 212 213 150 
 214 13 215 
 60 137 118 
 26 193 22 
 99 216 47 
 173 174 139 
 178 139 174 
 45 165 46 
 217 50 218 
 36 218 50 
 1 3 98 
 127 118 137 
 65 150 213 
 94 25 24 
 142 125 210 
 42 210 125 
 164 173 181 
 71 187 173 
 214 14 13 
 66 171 170 
 91 73 219 
 42 125 43 
 91 46 181 
 16 18 144 
 124 144 18 
 159 220 121 
 221 222 223 
 204 215 185 
 12 79 5 
 217 5 79 
 224 197 196 
 36 38 218 
 6 218 38 
 115 117 225 
 48 92 203 
 115 2 226 
 60 227 135 
 112 28 228 
 229 228 28 
 99 101 216 
 16 230 162 
 231 162 230 
 107 232 113 
 107 112 222 
 108 180 233 
 4 2 234 
 6 38 168 
 135 227 235 
 235 227 214 
 49 236 153 
 204 205 215 
 49 50 236 
 68 237 53 
 123 29 28 
 238 74 37 
 62 32 153 
 239 58 240 
 57 240 58 
 60 135 137 
 214 215 205 
 95 157 80 
 104 241 242 
 1 226 2 
 124 126 144 
 26 243 244 
 108 110 130 
 30 32 245 
 16 144 230 
 208 230 144 
 91 219 92 
 208 92 219 
 75 38 74 
 190 25 206 
 49 76 50 
 102 103 246 
 239 51 76 
 247 25 190 
 2 201 234 
 108 233 109 
 78 80 166 
 248 180 147 
 64 245 32 
 161 133 162 
 16 162 133 
 161 185 249 
 200 250 201 
 115 225 2 
 54 22 188 
 95 80 251 
 81 251 80 
 252 253 186 
 44 254 149 
 142 126 125 
 184 135 235 
 94 206 25 
 239 240 51 
 138 51 240 
 208 143 92 
 214 85 14 
 255 256 257 
 176 258 177 
 59 130 259 
 239 31 260 
 30 260 31 
 261 260 262 
 97 243 21 
 26 21 243 
 192 209 183 
 192 193 189 
 229 28 55 
 20 237 167 
 190 129 7 
 33 122 263 
 109 263 122 
 221 223 128 
 82 23 9 
 54 188 134 
 45 216 264 
 265 264 216 
 192 189 209 
 65 199 83 
 78 236 79 
 217 79 236 
 59 7 129 
 266 261 262 
 49 153 32 
 57 186 253 
 248 267 180 
 229 180 267 
 175 177 196 
 268 255 257 
 64 177 245 
 64 269 177 
 131 244 147 
 95 251 96 
 94 183 209 
 146 96 270 
 182 271 93 
 180 55 233 
 248 244 243 
 99 160 121 
 65 67 150 
 94 93 271 
 272 158 207 
 272 207 254 
 27 273 233 
 200 2 225 
 229 55 180 
 239 260 274 
 155 154 174 
 176 266 258 
 109 233 273 
 44 257 256 
 131 189 193 
 75 9 23 
 275 195 197 
 195 175 196 
 167 226 98 
 223 222 228 
 178 154 35 
 238 141 74 
 152 276 86 
 10 9 141 
 167 98 21 
 102 61 120 
 192 188 22 
 118 120 61 
 26 244 193 
 212 150 277 
 1 98 226 
 92 143 203 
 20 53 237 
 239 274 58 
 239 76 31 
 142 210 203 
 90 203 210 
 192 183 188 
 248 147 244 
 88 207 160 
 107 105 232 
 56 278 186 
 142 203 143 
 94 271 183 
 130 110 259 
 65 213 199 
 252 199 213 
 231 163 162 
 223 228 267 
 229 267 228 
 198 199 279 
 215 13 249 
 182 183 271 
 231 280 72 
 73 72 280 
 281 234 201 
 238 282 277 
 6 247 7 
 278 198 279 
 204 72 77 
 138 282 37 
 238 37 282 
 10 277 150 
 19 249 13 
 4 241 283 
 104 283 241 
 82 24 23 
 214 227 85 
 25 247 168 
 100 284 197 
 275 197 284 
 71 179 77 
 30 262 260 
 200 117 285 
 97 21 98 
 261 274 260 
 48 132 47 
 215 249 185 
 6 168 247 
 156 157 286 
 212 277 282 
 59 259 148 
 99 89 160 
 200 225 117 
 88 160 89 
 45 47 216 
 224 287 197 
 100 197 287 
 221 128 3 
 178 174 154 
 252 279 199 
 60 288 227 
 266 262 258 
 172 273 151 
 155 286 157 
 33 263 111 
 190 7 247 
 88 149 254 
 94 209 206 
 261 114 274 
 146 148 259 
 255 272 256 
 140 289 136 
 272 254 256 
 88 254 207 
 131 193 244 
 184 77 179 
 217 236 50 
 202 169 171 
 99 132 89 
 78 153 236 
 177 258 245 
 30 245 258 
 152 85 227 
 220 275 284 
 146 270 148 
 81 148 270 
 44 256 254 
 62 166 290 
 156 290 166 
 27 151 273 
 204 185 163 
 102 120 151 
 265 291 292 
 248 243 293 
 45 264 165 
 294 165 264 
 27 233 55 
 295 290 296 
 265 216 101 
 97 128 293 
 172 263 273 
 68 70 116 
 172 151 120 
 212 297 213 
 252 213 297 
 152 227 288 
 295 63 290 
 100 121 284 
 220 284 121 
 49 31 76 
 231 72 163 
 204 163 72 
 223 293 128 
 140 136 179 
 30 258 262 
 252 297 253 
 146 110 122 
 295 298 63 
 64 63 298 
 60 41 288 
 87 276 41 
 238 277 141 
 4 283 3 
 221 3 283 
 127 136 289 
 248 293 267 
 112 228 222 
 224 291 287 
 73 280 219 
 208 219 280 
 114 58 274 
 6 5 218 
 217 218 5 
 224 298 291 
 115 226 299 
 96 251 270 
 81 270 251 
 184 235 205 
 214 205 235 
 252 186 279 
 107 222 106 
 221 106 222 
 64 298 269 
 202 171 83 
 97 293 243 
 295 292 291 
 231 230 280 
 208 280 230 
 200 285 250 
 91 181 187 
 173 187 181 
 191 116 70 
 281 241 234 
 102 246 61 
 39 61 246 
 265 287 291 
 66 83 171 
 265 292 264 
 167 299 226 
 164 165 194 
 212 282 297 
 278 279 186 
 294 194 165 
 138 240 253 
 57 253 240 
 138 297 282 
 127 289 119 
 34 119 289 
 295 291 298 
 103 211 246 
 156 286 296 
 115 299 116 
 178 145 139 
 140 139 145 
 294 292 296 
 295 296 292 
 104 106 283 
 281 242 241 
 4 234 241 
 265 101 287 
 100 287 101 
 294 296 286 
 146 259 110 
 184 179 136 
 224 196 269 
 221 283 106 
 10 141 277 
 177 269 196 
 223 267 293 
 294 286 194 
 109 273 263 
 224 269 298 
 156 296 290 
 68 116 299 
 155 194 286 
 172 111 263 
 140 145 289 
 34 289 145 
 294 264 292 
 172 119 111 
 34 111 119 
 62 290 63 
 138 253 297 
 39 246 211 
 68 299 237 
 167 237 299 
 41 276 288 
 152 288 276 
