TITLE      =  "2D FE Unstructured grid data" 
VARIABLES = "X", "Y", "U", "Dom" 
ZONE T="P1", F=FEPOINT, N= 303 E= 539  ET=TRIANGLE 
 8.136876 4.213919 12.350786 18
 8.233779 4.208621 12.442390 18
 8.197956 4.353964 12.551911 18
 8.043000 4.266956 12.309945 18
 8.820605 5.021739 13.842323 18
 8.722643 4.893626 13.616253 18
 8.893986 4.907285 13.801253 18
 8.833369 4.807293 13.640643 18
 8.283409 4.508610 12.792003 18
 8.329446 4.403931 12.733356 18
 8.401311 4.564542 12.965838 18
 8.446996 4.428215 12.875203 18
 8.564707 5.134566 13.699253 18
 8.709617 5.112521 13.822114 18
 8.627939 5.212504 13.840423 18
 9.364298 5.069196 14.433482 18
 9.440231 4.961960 14.402177 18
 9.521749 5.133544 14.655281 18
 9.111339 3.475663 12.586987 18
 9.189052 3.630861 12.819902 18
 9.037111 3.620797 12.657890 18
 8.873552 5.163724 14.037249 18
 8.990396 5.045081 14.035445 18
 8.541680 4.309810 12.851472 18
 8.655129 4.284656 12.939764 18
 8.563005 4.423867 12.986858 18
 9.739560 3.850509 13.590060 18
 9.820748 3.979503 13.800241 18
 9.701102 4.005759 13.706850 18
 8.583735 5.031181 13.614898 18
 9.252457 3.526508 12.778954 18
 9.084210 2.774578 11.858780 18
 9.210153 2.670109 11.880246 18
 9.204548 2.809502 12.014044 18
 9.087513 3.339667 12.427168 18
 9.026529 3.270177 12.296693 18
 9.144161 3.207373 12.351521 18
 10.000000 3.472222 13.472222 18
 10.000000 3.611111 13.611111 18
 9.854188 3.516792 13.370975 18
 9.892745 3.641623 13.534373 18
 9.493650 4.264837 13.758473 18
 9.630780 4.212965 13.843736 18
 9.569606 4.362883 13.932480 18
 9.701820 4.346334 14.048145 18
 9.792582 4.131754 13.924323 18
 9.182967 3.350452 12.533405 18
 8.678182 4.436863 13.115033 18
 9.763619 4.995296 14.758907 18
 9.803578 5.156919 14.960499 18
 9.658634 5.078186 14.736819 18
 8.363518 4.296433 12.659942 18
 8.857430 3.828493 12.685905 18
 8.906816 3.683397 12.590199 18
 9.000507 3.767156 12.767646 18
 9.144129 4.504739 13.648856 18
 9.057297 4.639683 13.696965 18
 8.979750 4.530584 13.510320 18
 9.565700 4.992430 14.558125 18
 8.883080 4.651967 13.535027 18
 8.224382 5.129714 13.354086 18
 8.161983 4.972324 13.134295 18
 8.308622 5.038104 13.346710 18
 8.993105 3.903397 12.896483 18
 8.116965 5.102116 13.219073 18
 8.499805 4.198955 12.698749 18
 8.602221 3.469974 12.072178 18
 8.556871 3.586126 12.142988 18
 8.437001 3.520203 11.957192 18
 9.287970 3.215673 12.503634 18
 8.462506 3.635818 12.098307 18
 8.570185 3.698988 12.269160 18
 8.418548 3.747811 12.166346 18
 8.578001 3.849503 12.427493 18
 9.656452 4.903107 14.559556 18
 9.331159 3.351627 12.682776 18
 7.908357 4.798086 12.706428 18
 7.803439 4.691078 12.494500 18
 7.962013 4.663584 12.625587 18
 9.454902 3.848161 13.303043 18
 9.314283 3.848248 13.162517 18
 9.434791 3.702993 13.137775 18
 9.291065 3.714597 13.005651 18
 8.348732 4.179103 12.527824 18
 9.365487 4.864355 14.229831 18
 9.463585 4.799226 14.262801 18
 9.342649 2.727676 12.070319 18
 8.652964 3.332888 11.985833 18
 8.745855 3.392673 12.138515 18
 8.746016 3.500659 12.246659 18
 9.545782 4.888039 14.433815 18
 8.982921 4.773951 13.756852 18
 8.638648 3.969128 12.607764 18
 8.518836 3.956628 12.475446 18
 9.543092 2.953604 12.496695 18
 9.449391 3.039363 12.488753 18
 9.423470 2.865226 12.288692 18
 9.884130 3.862222 13.746346 18
 8.791578 4.266639 13.058194 18
 8.735228 4.162879 12.898087 18
 8.901535 4.154629 13.056142 18
 8.927892 3.522048 12.449924 18
 7.901470 4.551707 12.453168 18
 8.142313 4.540506 12.682806 18
 8.164438 4.105258 12.269691 18
 8.303850 4.077287 12.381127 18
 8.892035 3.981842 12.873856 18
 9.009155 4.033360 13.042497 18
 9.185892 4.630215 13.816091 18
 9.595148 3.911410 13.506542 18
 9.261940 4.191768 13.453688 18
 9.137074 4.064754 13.201810 18
 9.294507 4.016786 13.311281 18
 9.013980 4.902018 13.915974 18
 9.164279 4.330723 13.494978 18
 9.119013 4.198482 13.317473 18
 8.799227 3.695459 12.494673 18
 9.201405 4.935510 14.136899 18
 9.232071 5.051641 14.283689 18
 9.106349 4.979466 14.085795 18
 8.791797 4.408943 13.200720 18
 9.896333 4.076138 13.972466 18
 9.731742 3.404548 13.136285 18
 9.595600 3.461062 13.056656 18
 9.617782 3.328546 12.946320 18
 9.484823 3.377062 12.861876 18
 8.014758 5.026240 13.040993 18
 7.912322 5.070052 12.982366 18
 7.905993 4.939065 12.845046 18
 9.010417 4.264057 13.274447 18
 9.024271 4.401928 13.426180 18
 8.010725 4.891712 12.902429 18
 9.596484 3.754119 13.350587 18
 9.544909 3.601026 13.145924 18
 9.696916 3.536094 13.233009 18
 9.843989 4.287328 14.131309 18
 9.836925 4.437894 14.274816 18
 9.314569 4.342330 13.656883 18
 8.751380 4.564247 13.315608 18
 8.861794 4.526571 13.388344 18
 8.695585 3.615175 12.310751 18
 8.902892 4.323374 13.226249 18
 9.774709 2.930579 12.705286 18
 9.830764 3.057855 12.888618 18
 9.671414 3.023718 12.695128 18
 9.370563 3.484943 12.855494 18
 8.706083 3.761477 12.467545 18
 9.268643 4.448486 13.717116 18
 9.642103 3.181105 12.823194 18
 9.752715 3.139652 12.892362 18
 9.735064 3.290539 13.025597 18
 9.659159 3.651117 13.310262 18
 8.535851 4.550630 13.086476 18
 8.808000 4.066500 12.874481 18
 8.343011 3.622439 11.965441 18
 9.867215 3.358270 13.225481 18
 8.068411 4.410639 12.479037 18
 9.338692 2.983404 12.322087 18
 9.569804 4.571433 14.141228 18
 9.660564 4.490055 14.150609 18
 9.656548 4.656291 14.312827 18
 9.775171 4.579339 14.354513 18
 9.252267 3.424379 12.676634 18
 8.426278 4.109686 12.535949 18
 9.587584 4.065104 13.652675 18
 9.477521 4.131865 13.609378 18
 8.040832 4.749102 12.789926 18
 10.000000 3.333333 13.333333 18
 8.822588 3.578330 12.400899 18
 9.308034 2.864636 12.172662 18
 9.370858 4.135249 13.506094 18
 9.893568 5.066491 14.960059 18
 8.920476 3.021576 11.942039 18
 9.007729 3.134118 12.141842 18
 8.855284 3.136485 11.991755 18
 8.444735 5.075212 13.519928 18
 8.491294 5.224998 13.716272 18
 8.351130 5.181495 13.532605 18
 9.681722 4.117604 13.799319 18
 9.726391 3.722780 13.449162 18
 8.077665 4.032224 12.109877 18
 8.224384 3.983773 12.208146 18
 10.000000 3.055556 13.055556 18
 9.896259 2.958136 12.854393 18
 9.088025 3.957970 13.045976 18
 8.494654 4.948745 13.443378 18
 8.432581 3.883755 12.316324 18
 8.281182 3.844628 12.125806 18
 9.197598 3.915571 13.113147 18
 9.267573 3.080878 12.348448 18
 9.146122 3.040666 12.186776 18
 9.486578 3.959123 13.445687 18
 9.104176 3.726347 12.830501 18
 9.389493 3.941152 13.330629 18
 8.697927 4.067390 12.765293 18
 8.621064 4.148262 12.769305 18
 8.538924 4.070376 12.609287 18
 8.397983 5.325667 13.723624 18
 9.408763 4.670970 14.079715 18
 9.303288 4.563451 13.866725 18
 9.457863 4.560836 14.018690 18
 9.392477 4.455444 13.847911 18
 8.717920 3.878421 12.596323 18
 8.764432 4.697741 13.462154 18
 8.913311 3.256656 12.169954 18
 9.124958 4.842820 13.967758 18
 8.711639 4.780706 13.492332 18
 8.508940 4.682758 13.191681 18
 8.648938 4.663811 13.312730 18
 8.912887 4.440127 13.352996 18
 9.035439 4.143056 13.178473 18
 9.851737 3.745319 13.597045 18
 8.688021 5.006658 13.694657 18
 9.894982 3.155647 13.050629 18
 8.282659 4.921088 13.203733 18
 10.000000 4.444445 14.444445 18
 9.895347 4.543991 14.439342 18
 8.117463 4.823249 12.940701 18
 8.737043 5.234947 13.971970 18
 10.000000 3.750000 13.750000 18
 9.397194 4.033442 13.430623 18
 8.972569 3.394670 12.367223 18
 8.770854 3.259098 12.029939 18
 8.336599 3.943409 12.280000 18
 8.846900 3.345389 12.192273 18
 9.491364 3.504400 12.995755 18
 9.526664 3.231197 12.757853 18
 9.097701 3.842282 12.939964 18
 9.548377 3.097301 12.645668 18
 8.164157 4.693324 12.857473 18
 8.086248 5.279668 13.365901 18
 8.053024 5.415451 13.468464 18
 7.976167 5.274621 13.250779 18
 8.251304 5.295807 13.547102 18
 10.000000 4.305555 14.305555 18
 9.896297 4.188107 14.084409 18
 10.000000 3.888889 13.888889 18
 9.328944 3.606921 12.935851 18
 9.785014 3.612837 13.397853 18
 9.289888 4.673587 13.963463 18
 9.515800 4.473945 13.989737 18
 7.797813 4.871843 12.669645 18
 10.000000 4.861111 14.861111 18
 10.000000 5.000000 15.000000 18
 9.878259 4.909756 14.788011 18
 10.000000 4.583333 14.583333 18
 10.000000 4.722222 14.722221 18
 9.880175 4.672441 14.552611 18
 9.114153 4.730761 13.844895 18
 9.030814 2.984897 12.015705 18
 9.407244 3.254211 12.661449 18
 8.263885 4.623531 12.887400 18
 9.918821 4.368527 14.287350 18
 8.066018 4.637471 12.703480 18
 10.000000 2.916667 12.916667 18
 10.000000 4.166667 14.166667 18
 8.230309 4.827884 13.058178 18
 8.295834 4.735635 13.031450 18
 8.469175 4.823543 13.292705 18
 8.601311 4.799692 13.400987 18
 8.397052 4.694332 13.091370 18
 9.230813 2.937374 12.168187 18
 9.832903 3.240989 13.073888 18
 8.856175 3.448032 12.304192 18
 9.875825 2.830022 12.705837 18
 9.334420 4.761513 14.095921 18
 9.202797 3.783251 12.986025 18
 9.363633 3.128230 12.491850 18
 9.383889 4.243562 13.627439 18
 9.734552 4.243294 13.977840 18
 9.444994 4.357610 13.802589 18
 8.020779 4.540840 12.561614 18
 9.531137 4.677654 14.208782 18
 8.589025 4.907459 13.496466 18
 10.000000 4.027778 14.027779 18
 9.457596 3.154818 12.612409 18
 8.350130 4.829906 13.180021 18
 9.217078 4.741789 13.958845 18
 9.261843 4.849654 14.111483 18
 8.022291 5.169083 13.191361 18
 7.890661 5.195217 13.085863 18
 8.388100 4.946356 13.334443 18
 9.602942 4.783470 14.386414 18
 9.717548 4.796529 14.514071 18
 10.000000 3.194444 13.194444 18
 8.651186 4.533991 13.185156 18
 9.763075 4.695080 14.458142 18
 9.120214 2.902128 12.022331 18
 8.154737 5.215671 13.370397 18
 9.816274 4.791667 14.607937 18
 9.921261 4.791667 14.712923 18
 9.024781 2.865752 11.890521 18
 9.435319 3.593017 13.028329 18
 8.780659 3.965343 12.745981 18
 9.310996 4.960452 14.271432 18
 8.045205 4.134794 12.179998 18
 9.763405 4.883244 14.646644 18
 8.280723 3.514709 11.795418 18
 9.661263 2.881736 12.542999 18
 8.420769 4.007967 12.428728 18
 9.919020 3.256537 13.175552 18
 8.157369 5.343278 13.500633 18
 9.926762 3.958333 13.885095 18
 1 2 3 
 4 1 3 
 5 6 7 
 7 6 8 
 9 10 11 
 10 12 11 
 13 14 15 
 16 17 18 
 19 20 21 
 22 5 23 
 24 25 26 
 27 28 29 
 30 14 13 
 31 20 19 
 32 33 34 
 35 36 37 
 38 39 40 
 39 41 40 
 42 43 44 
 45 44 43 
 46 29 28 
 47 35 37 
 26 25 48 
 49 50 51 
 52 24 12 
 53 54 55 
 56 57 58 
 59 18 17 
 52 3 2 
 60 58 57 
 61 62 63 
 5 7 23 
 53 55 64 
 61 65 62 
 52 66 24 
 67 68 69 
 70 47 37 
 71 72 73 
 74 73 72 
 59 75 51 
 70 76 47 
 77 78 79 
 80 81 82 
 83 82 81 
 52 84 66 
 85 86 17 
 34 33 87 
 88 89 67 
 67 89 90 
 86 91 17 
 60 57 92 
 74 93 94 
 95 96 97 
 27 98 28 
 99 100 101 
 102 21 54 
 49 51 75 
 79 78 103 
 104 3 9 
 105 106 2 
 53 64 107 
 108 107 64 
 56 109 57 
 27 29 110 
 111 112 113 
 114 23 7 
 111 115 116 
 53 117 54 
 118 119 120 
 48 25 121 
 111 116 112 
 46 28 122 
 123 124 125 
 126 125 124 
 127 128 129 
 22 14 5 
 130 115 131 
 56 131 115 
 127 129 132 
 80 133 110 
 134 124 135 
 45 136 137 
 111 138 115 
 139 121 140 
 141 67 90 
 99 101 142 
 143 144 145 
 27 110 133 
 126 146 76 
 141 147 72 
 74 72 147 
 56 115 148 
 149 150 151 
 134 135 152 
 11 12 153 
 154 101 100 
 71 73 155 
 38 40 156 
 104 157 3 
 158 97 96 
 159 160 161 
 162 161 160 
 31 19 163 
 47 163 19 
 164 66 84 
 60 92 8 
 165 43 166 
 42 166 43 
 149 151 125 
 77 79 167 
 168 38 156 
 102 54 169 
 48 121 139 
 34 87 170 
 54 21 55 
 59 51 18 
 111 113 171 
 2 106 84 
 45 137 160 
 162 160 137 
 49 172 50 
 4 3 157 
 173 174 175 
 176 177 178 
 46 179 29 
 176 30 13 
 52 10 3 
 27 133 180 
 31 163 146 
 105 181 182 
 115 138 148 
 183 144 184 
 108 64 185 
 108 101 107 
 154 107 101 
 134 133 82 
 80 82 133 
 176 186 30 
 56 58 131 
 73 187 188 
 53 147 117 
 130 142 101 
 176 178 63 
 189 81 113 
 74 187 73 
 70 37 190 
 191 190 37 
 165 166 192 
 133 152 180 
 193 55 21 
 81 194 113 
 195 196 197 
 198 178 177 
 99 121 25 
 93 195 197 
 199 200 201 
 202 201 200 
 74 203 93 
 146 163 76 
 60 8 204 
 175 174 205 
 114 92 206 
 6 207 8 
 191 37 174 
 36 205 174 
 176 13 177 
 11 153 208 
 209 208 153 
 210 140 121 
 144 150 145 
 71 69 68 
 143 184 144 
 130 116 115 
 108 112 211 
 27 212 98 
 6 5 213 
 183 214 144 
 202 200 148 
 127 62 65 
 215 63 62 
 216 217 137 
 8 92 7 
 127 132 62 
 218 62 132 
 22 219 14 
 196 25 66 
 24 66 25 
 189 112 185 
 108 185 112 
 220 98 212 
 56 200 109 
 114 7 92 
 221 192 166 
 102 222 19 
 175 205 223 
 224 188 187 
 225 223 205 
 74 94 187 
 126 226 146 
 45 160 44 
 149 125 227 
 193 21 20 
 193 228 55 
 149 227 229 
 60 140 58 
 218 167 230 
 30 213 14 
 93 197 94 
 189 113 112 
 231 232 233 
 198 234 178 
 141 90 169 
 235 136 236 
 130 131 142 
 210 142 131 
 209 139 204 
 60 204 139 
 220 237 98 
 31 146 238 
 239 40 41 
 123 40 135 
 239 135 40 
 199 240 200 
 15 177 13 
 44 160 241 
 141 68 67 
 74 147 203 
 165 192 110 
 77 242 78 
 243 244 245 
 246 247 248 
 162 137 217 
 56 148 200 
 36 174 37 
 92 249 206 
 165 110 29 
 59 17 91 
 134 152 133 
 191 174 250 
 61 63 178 
 70 251 76 
 11 252 9 
 123 156 40 
 216 137 253 
 230 167 254 
 202 148 138 
 104 9 252 
 102 19 21 
 255 183 184 
 256 235 236 
 218 230 257 
 258 257 230 
 259 208 260 
 209 260 208 
 11 261 252 
 12 26 153 
 158 190 262 
 191 262 190 
 159 241 160 
 218 132 167 
 77 167 132 
 263 151 150 
 5 14 213 
 220 212 41 
 47 19 35 
 218 257 62 
 215 62 257 
 90 264 169 
 83 238 82 
 255 184 265 
 52 2 84 
 199 86 266 
 85 266 86 
 80 110 192 
 104 252 230 
 105 2 1 
 193 267 228 
 158 96 268 
 42 269 166 
 64 55 228 
 216 246 217 
 45 270 136 
 83 267 20 
 193 20 267 
 241 202 271 
 61 178 234 
 166 269 171 
 158 268 190 
 126 76 251 
 39 220 41 
 126 124 226 
 104 272 157 
 24 26 12 
 52 12 10 
 44 241 271 
 159 273 201 
 49 245 172 
 224 182 188 
 30 274 213 
 83 81 267 
 189 267 81 
 275 256 122 
 276 229 227 
 123 151 156 
 143 265 184 
 259 277 261 
 278 279 206 
 118 206 279 
 173 250 174 
 112 116 211 
 47 76 163 
 221 171 113 
 127 280 128 
 281 128 280 
 53 203 147 
 141 117 147 
 210 131 58 
 102 169 264 
 244 172 245 
 141 72 68 
 259 186 282 
 77 132 129 
 114 120 23 
 42 44 271 
 283 161 284 
 183 285 214 
 123 135 124 
 209 153 286 
 161 287 284 
 15 14 219 
 126 227 125 
 34 288 32 
 199 201 273 
 3 10 9 
 231 280 289 
 57 249 92 
 46 136 270 
 209 286 139 
 259 282 277 
 246 248 217 
 48 139 286 
 149 145 150 
 123 125 151 
 209 207 260 
 259 261 208 
 46 236 136 
 259 260 274 
 280 65 289 
 137 136 253 
 235 253 136 
 162 217 248 
 202 138 271 
 153 26 286 
 111 269 138 
 258 252 261 
 263 156 151 
 48 286 26 
 165 179 43 
 45 43 270 
 31 238 20 
 83 20 238 
 259 274 186 
 61 234 289 
 158 262 170 
 60 139 140 
 290 291 245 
 243 245 291 
 6 213 274 
 118 120 206 
 114 206 120 
 134 226 124 
 292 32 288 
 247 291 248 
 290 248 291 
 209 204 207 
 239 152 135 
 239 41 212 
 130 101 211 
 27 180 212 
 239 212 180 
 30 186 274 
 82 238 293 
 158 170 97 
 258 230 252 
 79 254 167 
 149 229 145 
 95 145 229 
 258 261 277 
 221 113 194 
 77 129 242 
 93 294 195 
 159 161 273 
 164 84 106 
 210 58 140 
 34 262 288 
 256 236 122 
 199 266 240 
 263 150 214 
 144 214 150 
 191 288 262 
 34 170 262 
 290 287 248 
 162 248 287 
 71 68 72 
 99 142 121 
 210 121 142 
 118 295 119 
 16 119 295 
 36 222 205 
 225 205 222 
 134 82 293 
 105 1 296 
 108 211 101 
 99 25 100 
 196 100 25 
 290 245 297 
 49 297 245 
 224 106 182 
 71 155 69 
 298 69 155 
 8 207 204 
 70 268 251 
 102 264 222 
 225 222 264 
 283 86 273 
 104 230 254 
 143 145 299 
 95 299 145 
 276 251 268 
 199 273 86 
 164 300 197 
 94 197 300 
 235 216 253 
 57 109 249 
 278 249 109 
 130 211 116 
 285 168 301 
 11 208 261 
 231 302 232 
 165 29 179 
 141 169 117 
 283 273 161 
 93 203 294 
 225 89 223 
 88 223 89 
 19 222 35 
 247 243 291 
 164 106 300 
 224 300 106 
 43 179 270 
 46 270 179 
 237 275 303 
 278 266 279 
 85 279 266 
 278 206 249 
 281 280 233 
 126 251 227 
 6 260 207 
 36 35 222 
 231 289 302 
 234 302 289 
 6 274 260 
 105 296 181 
 4 296 1 
 105 182 106 
 191 250 288 
 276 227 251 
 168 156 301 
 283 284 75 
 94 300 187 
 224 187 300 
 80 194 81 
 154 195 294 
 162 287 161 
 176 282 186 
 85 295 279 
 118 279 295 
 87 97 170 
 164 197 66 
 196 66 197 
 263 301 156 
 231 233 280 
 275 122 303 
 28 303 122 
 127 65 280 
 283 91 86 
 215 282 63 
 176 63 282 
 239 180 152 
 85 17 295 
 16 295 17 
 276 268 96 
 90 89 264 
 225 264 89 
 70 190 268 
 49 75 297 
 46 122 236 
 283 75 91 
 59 91 75 
 278 109 240 
 200 240 109 
 215 277 282 
 215 257 277 
 258 277 257 
 54 117 169 
 292 288 250 
 189 228 267 
 221 166 171 
 53 107 294 
 79 103 272 
 146 293 238 
 196 195 100 
 75 284 297 
 80 192 194 
 221 194 192 
 138 269 271 
 111 171 269 
 237 303 98 
 28 98 303 
 154 294 107 
 53 294 203 
 95 229 96 
 276 96 229 
 278 240 266 
 263 214 301 
 290 284 287 
 42 271 269 
 285 301 214 
 134 293 226 
 146 226 293 
 64 228 185 
 189 185 228 
 202 241 201 
 159 201 241 
 154 100 195 
 61 289 65 
 104 254 272 
 79 272 254 
 290 297 284 
