TITLE      =  "2D FE Unstructured grid data" 
VARIABLES = "X", "Y", "U", "Dom" 
ZONE T="P1", F=FEPOINT, N= 302 E= 534  ET=TRIANGLE 
 0.396185 2.183249 2.579435 5
 0.485793 2.257014 2.742809 5
 0.408222 2.362005 2.770229 5
 1.124692 2.502292 3.626985 5
 1.228799 2.671952 3.900750 5
 1.078740 2.622919 3.701659 5
 1.260920 2.524205 3.785121 5
 0.307372 2.242768 2.550142 5
 1.127248 1.726203 2.853447 5
 1.287513 1.779542 3.067049 5
 1.172185 1.879920 3.052100 5
 1.198950 0.801339 2.000285 5
 1.130480 0.928674 2.059150 5
 1.047596 0.816552 1.864143 5
 0.790780 1.521364 2.312140 5
 0.866223 1.686136 2.552356 5
 0.720848 1.668843 2.389690 5
 1.334896 0.555154 1.890045 5
 1.426591 0.410512 1.837099 5
 1.466554 0.565998 2.032548 5
 1.527778 0.000000 1.527778 5
 1.666667 0.000000 1.666667 5
 1.589848 0.164068 1.753915 5
 0.000000 1.666667 1.666667 5
 0.000000 1.527778 1.527778 5
 0.166367 1.576067 1.742433 5
 1.305229 0.389658 1.694883 5
 0.985853 1.824786 2.810635 5
 1.035779 1.969255 3.005032 5
 0.868734 0.211318 1.080052 5
 0.964521 0.286455 1.250974 5
 0.812346 0.369957 1.182302 5
 1.582600 0.637034 2.219629 5
 1.586031 0.794422 2.380449 5
 1.444892 0.702479 2.147367 5
 1.455321 0.867097 2.322413 5
 1.805556 0.000000 1.805556 5
 1.903467 0.135013 2.038479 5
 1.734081 0.126238 1.860318 5
 0.000000 1.805556 1.805556 5
 0.127251 1.739763 1.867014 5
 0.133506 1.909086 2.042592 5
 1.218172 1.198164 2.416332 5
 1.350614 1.261764 2.612373 5
 1.181875 1.340844 2.522714 5
 0.311474 0.668788 0.980261 5
 0.467381 0.608861 1.076241 5
 0.442229 0.729840 1.172067 5
 0.000000 1.388889 1.388889 5
 0.149972 1.286949 1.436921 5
 0.099357 1.458333 1.557690 5
 1.388889 0.000000 1.388889 5
 1.451688 0.102339 1.554026 5
 1.291612 0.150376 1.441987 5
 1.618358 0.331709 1.950064 5
 1.559231 0.486486 2.045714 5
 1.495906 0.308210 1.804113 5
 0.339635 1.612239 1.951874 5
 0.418746 1.759923 2.178669 5
 0.268489 1.723210 1.991699 5
 0.833333 0.000000 0.833333 5
 0.952749 0.121463 1.074212 5
 0.771428 0.118995 0.890423 5
 0.000000 0.833333 0.833333 5
 0.118995 0.771428 0.890423 5
 0.121463 0.952749 1.074212 5
 0.900401 1.538032 2.438429 5
 0.375573 0.517925 0.893497 5
 0.579927 1.330083 1.910005 5
 0.693155 1.242052 1.935202 5
 0.699880 1.394122 2.093998 5
 1.224287 0.296905 1.521190 5
 1.202538 0.454328 1.656862 5
 1.086883 0.329925 1.416806 5
 1.204282 1.580212 2.784488 5
 1.276246 1.667205 2.943444 5
 0.210360 1.430914 1.641272 5
 0.309166 1.491194 1.800359 5
 0.269519 0.553090 0.822609 5
 0.268505 0.404020 0.672524 5
 0.916679 1.238047 2.154721 5
 0.965835 1.099162 2.064992 5
 1.031494 1.177436 2.208925 5
 0.691302 2.067234 2.758536 5
 0.783778 1.939588 2.723365 5
 0.854382 2.058358 2.912740 5
 0.651550 1.897666 2.549214 5
 1.083317 1.567965 2.651277 5
 0.191461 0.489829 0.681290 5
 1.345006 0.811477 2.156477 5
 1.279948 1.975235 3.255177 5
 1.295532 2.101532 3.397058 5
 1.163028 2.022084 3.185107 5
 0.340190 0.827867 1.168056 5
 0.859163 1.097124 1.956283 5
 0.562077 1.993732 2.555809 5
 0.409535 0.412463 0.821997 5
 0.000000 1.250000 1.250000 5
 1.250000 0.000000 1.250000 5
 0.142591 0.344801 0.487392 5
 0.293416 0.264023 0.557439 5
 0.507339 1.134566 1.641902 5
 0.563142 0.991858 1.554995 5
 0.619008 1.146263 1.765266 5
 0.196901 0.196901 0.393802 5
 1.428417 0.211565 1.639980 5
 1.287793 2.335515 3.623307 5
 1.366972 2.232490 3.599457 5
 1.454482 2.360494 3.814969 5
 0.963276 0.910615 1.873887 5
 0.494141 0.194617 0.688757 5
 0.426389 0.291239 0.717627 5
 0.354120 0.138728 0.492848 5
 0.796502 2.183070 2.979572 5
 0.955972 0.412901 1.368870 5
 0.651486 1.530363 2.181846 5
 0.998214 1.483394 2.481603 5
 1.034647 1.338494 2.373137 5
 1.096392 1.437640 2.534027 5
 0.914497 1.418791 2.333283 5
 0.705132 1.066432 1.771559 5
 0.000000 2.222222 2.222222 5
 0.000000 2.083333 2.083333 5
 0.130890 2.155257 2.286148 5
 0.677595 0.299934 0.977529 5
 0.644156 0.449829 1.093984 5
 0.555341 0.298229 0.853569 5
 0.519273 0.410918 0.930190 5
 1.311510 1.415828 2.727333 5
 0.587877 1.751007 2.338884 5
 0.528754 1.862419 2.391174 5
 1.322060 0.701230 2.023286 5
 0.325855 1.831504 2.157358 5
 1.414853 1.981967 3.396813 5
 1.321646 1.882507 3.204147 5
 1.426256 1.824901 3.251149 5
 1.352674 2.447920 3.800591 5
 1.353049 2.614886 3.967931 5
 0.729831 1.793274 2.523104 5
 0.800232 1.190266 1.990494 5
 0.810924 1.353468 2.164386 5
 1.072271 2.401469 3.473738 5
 0.990665 2.513189 3.503855 5
 0.922144 2.388603 3.310747 5
 1.179332 2.145504 3.324832 5
 1.019990 1.005327 2.025313 5
 1.126688 0.709832 1.836515 5
 2.083333 0.000000 2.083333 5
 2.155499 0.130976 2.286473 5
 2.023181 0.094830 2.118011 5
 0.092829 2.016189 2.109020 5
 0.349809 0.337138 0.686946 5
 1.802902 0.244661 2.047560 5
 0.226299 1.817828 2.044126 5
 1.284990 0.997983 2.282968 5
 1.130524 1.080647 2.211166 5
 0.213983 0.864530 1.078512 5
 1.739587 1.082100 2.821677 5
 1.636586 1.009266 2.645844 5
 1.732573 0.938516 2.671080 5
 0.555556 0.000000 0.555556 5
 0.694444 0.000000 0.694444 5
 0.624231 0.153507 0.777738 5
 0.000000 0.694444 0.694444 5
 0.000000 0.555556 0.555556 5
 0.152226 0.623898 0.776124 5
 0.420917 1.928146 2.349064 5
 1.710454 0.548027 2.258477 5
 0.849068 1.832281 2.681346 5
 0.580966 1.624627 2.205591 5
 0.759233 0.229289 0.988522 5
 0.816208 2.523963 3.340171 5
 1.494737 1.249506 2.744237 5
 1.612268 1.306570 2.918829 5
 1.464182 1.376227 2.840402 5
 1.846440 0.980156 2.826587 5
 1.341398 0.280135 1.621531 5
 1.002043 1.704599 2.706639 5
 1.117136 0.585166 1.702298 5
 0.943857 0.568149 1.512002 5
 1.061277 0.470094 1.531368 5
 0.575569 2.333369 2.908941 5
 1.728074 0.715074 2.443141 5
 0.590910 1.441185 2.032093 5
 1.345885 1.133201 2.479080 5
 0.568243 1.226271 1.794510 5
 1.645534 0.899312 2.544838 5
 1.544757 0.940892 2.485642 5
 0.878031 0.714775 1.592802 5
 0.778876 0.819733 1.598605 5
 0.717826 0.702975 1.420798 5
 1.691617 0.243349 1.934964 5
 0.472575 1.652194 2.124768 5
 0.487143 0.090776 0.577919 5
 0.086995 0.486111 0.573106 5
 0.630066 0.830477 1.460539 5
 0.492288 0.849073 1.341359 5
 0.592840 0.709844 1.302681 5
 0.786546 0.529079 1.315623 5
 1.244893 1.102499 2.347388 5
 0.277778 0.000000 0.277778 5
 0.416667 0.000000 0.416667 5
 0.000000 0.416667 0.416667 5
 0.000000 0.277778 0.277778 5
 1.672118 0.432130 2.104245 5
 1.115047 1.241050 2.356092 5
 0.390641 1.407513 1.798152 5
 0.441784 1.278391 1.720172 5
 0.496440 1.418488 1.914926 5
 1.458757 1.139654 2.598405 5
 1.944444 0.000000 1.944444 5
 0.000000 1.944444 1.944444 5
 0.208161 2.029161 2.237325 5
 2.029161 0.208161 2.237321 5
 1.223186 0.559792 1.782973 5
 0.910307 0.820293 1.730596 5
 0.972222 0.000000 0.972222 5
 0.000000 0.972222 0.972222 5
 1.226026 0.652913 1.878934 5
 1.003319 0.703230 1.706545 5
 1.021242 2.290112 3.311355 5
 1.414830 1.003783 2.418607 5
 0.897737 2.261121 3.158858 5
 0.407763 0.954280 1.362041 5
 0.280749 0.962352 1.243101 5
 0.799050 1.004161 1.803206 5
 2.076653 0.355921 2.432570 5
 1.928411 0.294825 2.223235 5
 1.942917 0.425354 2.368267 5
 0.338355 2.037788 2.376144 5
 0.294825 1.928411 2.223237 5
 0.304244 1.212124 1.516367 5
 0.299258 1.339156 1.638412 5
 0.804001 0.635863 1.439860 5
 1.058497 0.184312 1.242808 5
 0.184312 1.058497 1.242809 5
 0.711231 0.936692 1.647918 5
 0.437769 1.057717 1.495484 5
 0.785964 2.303798 3.089763 5
 0.769742 2.412311 3.182054 5
 0.588144 0.588144 1.176286 5
 0.513241 0.509499 1.022738 5
 1.412666 1.711518 3.124174 5
 0.967330 1.604430 2.571756 5
 1.201904 1.471797 2.673696 5
 0.990084 2.182014 3.172097 5
 0.891994 2.156935 3.048928 5
 0.961750 2.062615 3.024364 5
 1.069861 2.093642 3.163501 5
 0.000000 0.000000 0.000000 5
 0.138889 0.000000 0.138889 5
 0.114254 0.114254 0.228508 5
 0.000000 0.138889 0.138889 5
 1.604082 1.158693 2.762765 5
 0.877952 0.476651 1.354599 5
 1.297043 1.547593 2.844628 5
 1.152123 0.105043 1.257165 5
 0.104976 1.151346 1.256321 5
 0.668522 2.223001 2.891524 5
 0.594302 2.129804 2.724106 5
 0.468229 2.064114 2.532344 5
 1.708324 0.828011 2.536327 5
 0.694410 0.592424 1.286832 5
 0.227374 0.751302 0.978675 5
 0.500699 2.168376 2.669077 5
 1.396836 1.506192 2.903021 5
 0.912848 1.945715 2.858561 5
 1.201700 2.419512 3.621212 5
 1.153550 0.213930 1.367478 5
 0.213930 1.153550 1.367479 5
 0.216388 0.089976 0.306364 5
 0.091278 0.219877 0.311155 5
 0.829501 0.908576 1.738072 5
 1.378407 1.612362 2.990762 5
 1.507207 1.487833 2.995030 5
 0.264624 2.150678 2.415304 5
 2.132638 0.245777 2.378412 5
 0.319502 1.079225 1.398726 5
 0.000000 1.111111 1.111111 5
 1.111111 0.000000 1.111111 5
 1.268035 0.888256 2.156286 5
 1.532904 1.058559 2.591457 5
 1.160633 2.284393 3.445027 5
 1.719057 0.348415 2.067470 5
 1.834179 0.376955 2.211130 5
 1.530432 1.733837 3.264260 5
 1.494926 1.608590 3.103507 5
 1.818970 0.832252 2.651213 5
 0.526815 1.532871 2.059684 5
 0.688612 2.346434 3.035046 5
 2.224255 0.306330 2.530571 5
 1.253819 2.221075 3.474890 5
 0.402869 1.155797 1.558663 5
 0.416624 1.526584 1.943206 5
 0.565144 2.223985 2.789129 5
 0.208869 2.269420 2.478288 5
 1.759653 0.444356 2.204004 5
 1.357789 0.913241 2.271024 5
 1.047968 0.081641 1.129609 5
 0.081641 1.047968 1.129609 5
 1.084230 2.199133 3.283361 5
 0.904912 1.004763 1.909671 5
 1 2 3 
 4 5 6 
 7 5 4 
 8 1 3 
 9 10 11 
 12 13 14 
 15 16 17 
 18 19 20 
 21 22 23 
 24 25 26 
 18 27 19 
 9 11 28 
 29 28 11 
 30 31 32 
 33 34 35 
 36 35 34 
 37 38 39 
 40 41 42 
 43 44 45 
 46 47 48 
 49 50 51 
 52 53 54 
 55 56 57 
 19 57 56 
 58 59 60 
 61 62 63 
 64 65 66 
 15 67 16 
 46 68 47 
 69 70 71 
 72 73 74 
 9 75 76 
 9 76 10 
 77 78 26 
 68 79 80 
 81 82 83 
 58 26 78 
 84 85 86 
 84 87 85 
 9 88 75 
 33 35 20 
 89 80 79 
 36 90 35 
 91 92 93 
 46 48 94 
 81 95 82 
 84 96 87 
 68 80 97 
 49 98 50 
 99 52 54 
 100 101 80 
 102 103 104 
 105 101 100 
 106 23 57 
 107 108 109 
 14 13 110 
 55 57 23 
 111 112 113 
 113 112 101 
 84 86 114 
 115 32 31 
 15 116 71 
 18 73 27 
 117 118 119 
 120 118 117 
 121 104 103 
 122 123 124 
 125 126 127 
 128 127 126 
 46 79 68 
 129 45 44 
 130 87 131 
 132 18 35 
 59 133 60 
 134 135 136 
 35 18 20 
 7 137 138 
 130 139 87 
 70 140 141 
 142 143 144 
 145 93 92 
 146 110 13 
 81 141 140 
 12 14 147 
 148 149 150 
 123 151 124 
 152 97 80 
 153 39 38 
 154 42 41 
 155 156 13 
 81 83 118 
 77 51 50 
 106 54 53 
 19 56 20 
 30 63 62 
 157 66 65 
 77 26 51 
 106 53 23 
 121 140 70 
 158 159 160 
 161 162 163 
 164 165 166 
 130 131 59 
 167 59 131 
 21 23 53 
 25 51 26 
 22 39 23 
 24 26 41 
 33 56 168 
 169 16 28 
 10 135 11 
 130 170 17 
 30 32 171 
 172 144 143 
 173 174 175 
 158 160 176 
 121 70 104 
 19 177 57 
 9 178 88 
 139 16 169 
 17 16 139 
 179 180 181 
 115 181 180 
 182 3 2 
 33 183 34 
 71 116 184 
 111 163 127 
 125 127 163 
 43 185 44 
 69 186 70 
 187 188 34 
 36 34 188 
 189 190 191 
 55 23 192 
 58 60 26 
 58 193 59 
 161 163 194 
 165 195 166 
 91 11 135 
 196 197 198 
 48 198 197 
 73 181 74 
 199 126 32 
 125 32 126 
 155 200 156 
 130 59 193 
 201 202 113 
 203 204 100 
 56 205 168 
 17 170 116 
 43 206 156 
 83 156 206 
 81 118 120 
 70 141 71 
 121 95 140 
 119 118 45 
 167 133 59 
 207 208 209 
 210 173 44 
 185 210 44 
 37 211 38 
 212 40 42 
 213 124 151 
 214 150 149 
 106 57 177 
 28 16 178 
 15 141 120 
 69 209 208 
 18 215 73 
 15 17 116 
 107 109 137 
 189 216 190 
 61 217 62 
 218 64 66 
 130 17 139 
 12 219 132 
 142 4 143 
 169 85 139 
 87 139 85 
 33 20 56 
 12 132 90 
 14 216 220 
 189 220 216 
 111 194 163 
 89 166 195 
 91 134 92 
 142 144 221 
 91 93 11 
 91 135 134 
 155 222 185 
 81 140 95 
 144 223 221 
 224 225 94 
 157 94 225 
 121 226 95 
 214 227 228 
 229 228 227 
 167 230 231 
 213 231 230 
 15 71 141 
 179 220 180 
 189 180 220 
 232 233 50 
 77 50 233 
 179 181 73 
 199 180 234 
 235 31 62 
 236 66 225 
 214 228 38 
 153 38 228 
 154 231 42 
 213 42 231 
 207 233 208 
 146 13 156 
 196 237 103 
 121 103 237 
 102 238 103 
 239 144 240 
 172 240 144 
 189 234 180 
 196 103 197 
 224 197 103 
 72 27 73 
 241 242 126 
 154 60 133 
 241 198 47 
 48 47 198 
 189 191 234 
 146 156 82 
 162 63 163 
 164 166 65 
 196 191 190 
 10 76 243 
 203 100 195 
 202 194 113 
 244 88 178 
 179 73 215 
 83 82 156 
 119 245 88 
 30 62 31 
 157 225 66 
 196 198 191 
 89 195 100 
 111 113 194 
 33 168 183 
 45 118 206 
 75 88 245 
 246 247 248 
 246 248 249 
 250 251 252 
 250 252 253 
 46 166 79 
 89 79 166 
 173 254 174 
 199 255 180 
 125 171 32 
 129 256 245 
 99 54 257 
 98 258 50 
 84 114 259 
 19 27 177 
 96 260 261 
 87 96 131 
 167 131 96 
 15 120 67 
 7 138 5 
 34 183 262 
 48 197 94 
 224 94 197 
 128 126 242 
 232 208 233 
 224 103 238 
 241 126 263 
 29 11 93 
 81 120 141 
 115 180 255 
 239 223 144 
 125 163 171 
 46 264 166 
 244 16 67 
 22 37 39 
 40 24 41 
 265 261 260 
 129 175 266 
 14 220 147 
 187 160 159 
 239 259 114 
 246 221 223 
 169 28 267 
 6 143 4 
 107 137 268 
 7 268 137 
 72 269 54 
 232 50 270 
 155 185 200 
 43 200 185 
 201 113 271 
 105 271 113 
 105 100 272 
 204 272 100 
 273 190 216 
 162 61 63 
 64 164 65 
 10 243 136 
 274 243 76 
 129 266 256 
 191 198 263 
 241 263 198 
 152 80 101 
 29 267 28 
 173 210 254 
 275 266 175 
 213 276 124 
 214 149 277 
 187 34 262 
 115 74 181 
 235 74 31 
 236 225 278 
 98 279 258 
 280 99 257 
 199 263 126 
 105 113 101 
 89 100 80 
 152 101 112 
 86 85 267 
 12 281 13 
 155 13 281 
 207 78 233 
 77 233 78 
 106 177 54 
 72 54 177 
 69 71 184 
 239 114 223 
 185 222 210 
 282 159 254 
 18 132 219 
 158 254 159 
 46 94 264 
 282 254 210 
 107 268 283 
 142 283 268 
 157 264 94 
 84 260 96 
 153 284 192 
 145 249 93 
 29 93 249 
 115 255 32 
 199 32 255 
 153 285 284 
 286 243 287 
 9 28 178 
 169 267 85 
 288 176 160 
 1 8 276 
 114 247 223 
 230 1 276 
 289 184 116 
 55 205 56 
 239 290 259 
 182 259 290 
 119 45 245 
 167 261 230 
 115 31 74 
 224 278 225 
 163 63 171 
 166 264 65 
 72 74 269 
 235 269 74 
 232 270 278 
 236 278 270 
 275 287 266 
 274 266 287 
 214 277 227 
 291 227 277 
 213 230 276 
 145 92 292 
 23 39 192 
 153 192 39 
 154 41 60 
 26 60 41 
 68 97 242 
 179 219 147 
 129 245 45 
 232 278 293 
 232 293 208 
 70 186 104 
 129 44 175 
 179 215 219 
 229 285 228 
 58 294 193 
 36 188 222 
 282 222 188 
 102 186 208 
 69 208 186 
 54 269 257 
 50 258 270 
 274 287 243 
 12 147 219 
 182 295 259 
 124 276 296 
 84 259 260 
 167 231 133 
 86 267 248 
 8 296 276 
 196 190 237 
 52 21 53 
 25 49 51 
 289 193 294 
 282 210 222 
 224 238 278 
 43 45 206 
 12 90 281 
 167 96 261 
 102 208 293 
 35 90 132 
 173 175 44 
 18 219 215 
 288 262 183 
 10 136 135 
 297 168 205 
 286 136 243 
 179 147 220 
 273 237 190 
 92 108 292 
 36 298 90 
 230 261 1 
 43 156 200 
 244 178 16 
 68 242 47 
 83 206 118 
 211 148 150 
 123 212 151 
 7 4 268 
 251 201 271 
 204 253 272 
 211 150 38 
 212 42 151 
 265 1 261 
 213 151 42 
 214 38 150 
 75 245 256 
 202 161 194 
 165 203 195 
 128 112 127 
 107 283 292 
 29 248 267 
 128 97 112 
 289 294 209 
 142 221 283 
 128 242 97 
 153 228 285 
 217 280 299 
 279 218 300 
 246 249 301 
 265 2 1 
 145 283 301 
 30 171 63 
 157 65 264 
 289 116 170 
 207 209 294 
 145 292 283 
 273 226 237 
 121 237 226 
 273 216 110 
 155 298 222 
 273 110 302 
 235 299 257 
 280 257 299 
 236 258 300 
 279 300 258 
 86 248 247 
 145 301 249 
 72 177 27 
 29 249 248 
 86 247 114 
 107 292 108 
 130 193 170 
 289 170 193 
 251 271 252 
 253 252 272 
 142 268 4 
 154 133 231 
 36 222 298 
 119 88 117 
 244 117 88 
 207 294 78 
 146 82 302 
 95 302 82 
 111 127 112 
 152 112 97 
 217 299 62 
 218 66 300 
 182 2 295 
 55 192 284 
 246 223 247 
 58 78 294 
 289 209 184 
 246 301 221 
 235 257 269 
 236 270 258 
 155 281 298 
 199 234 263 
 191 263 234 
 297 284 285 
 241 47 242 
 236 300 66 
 235 62 299 
 105 272 252 
 105 252 271 
 102 104 186 
 95 226 302 
 274 256 266 
 265 295 2 
 282 188 159 
 120 117 67 
 274 76 256 
 75 256 76 
 187 159 188 
 239 240 290 
 278 238 293 
 90 298 281 
 273 302 226 
 14 110 216 
 283 221 301 
 69 184 209 
 55 284 205 
 102 293 238 
 146 302 110 
 297 205 284 
 288 160 262 
 244 67 117 
 187 262 160 
 265 260 295 
 259 295 260 
