TITLE      =  "2D FE Unstructured grid data" 
VARIABLES = "X", "Y", "U", "Dom" 
ZONE T="P1", F=FEPOINT, N= 304 E= 541  ET=TRIANGLE 
 4.518532 9.039821 13.558376 7
 4.623083 9.182564 13.805661 7
 4.474886 9.182805 13.657706 7
 4.643481 9.022559 13.666059 7
 3.984750 9.683025 13.667789 7
 4.081141 9.703469 13.784622 7
 3.991364 9.808573 13.799948 7
 3.044516 8.797724 11.842309 7
 2.927110 8.801484 11.728658 7
 2.978158 8.659540 11.637765 7
 3.125738 8.723030 11.848839 7
 4.154042 9.791286 13.945334 7
 3.850071 9.739372 13.589450 7
 4.900708 8.889679 13.790402 7
 5.033668 8.974723 14.008413 7
 4.887443 9.018431 13.905890 7
 5.018963 8.822566 13.841548 7
 5.160952 8.874516 14.035497 7
 5.117629 9.121278 14.238917 7
 5.054770 9.226753 14.281532 7
 4.976250 9.108380 14.084644 7
 2.634778 9.100739 11.735574 7
 2.751874 9.095387 11.847319 7
 2.661494 9.223904 11.885440 7
 3.611111 10.000000 13.611111 7
 3.472222 10.000000 13.472222 7
 3.516792 9.854188 13.370982 7
 2.809457 9.542949 12.352427 7
 2.863925 9.418609 12.282565 7
 2.953662 9.542715 12.496402 7
 2.807078 9.202169 12.009287 7
 3.641623 9.892745 13.534364 7
 4.992723 9.561673 14.554405 7
 4.955625 9.444233 14.399872 7
 5.100862 9.495233 14.596104 7
 5.104562 9.353175 14.457742 7
 3.357792 9.078940 12.436774 7
 3.207491 9.144413 12.351951 7
 3.270567 9.026120 12.296731 7
 2.580719 9.428445 12.009195 7
 2.584457 9.302958 11.887453 7
 2.726588 9.342508 12.069130 7
 3.600476 8.706468 12.306997 7
 3.692692 8.572439 12.265183 7
 3.757893 8.727348 12.485289 7
 3.350409 9.182704 12.533148 7
 2.610155 8.909194 11.519406 7
 2.535382 9.000408 11.535847 7
 2.507951 8.842249 11.350259 7
 3.841172 8.600904 12.442124 7
 3.907595 8.740753 12.648388 7
 3.835572 8.882611 12.718226 7
 2.684485 8.547401 11.231965 7
 2.845678 8.557736 11.403490 7
 2.742036 8.654783 11.396894 7
 2.753611 9.666281 12.419908 7
 2.642692 9.569966 12.212681 7
 3.426557 8.510435 11.937060 7
 3.487289 8.414026 11.901381 7
 3.542542 8.558068 12.100670 7
 3.612251 8.459483 12.071794 7
 4.752560 9.091887 13.844468 7
 4.753585 9.217464 13.971056 7
 5.494482 9.751087 15.245568 7
 5.389594 9.632672 15.022263 7
 5.532137 9.655560 15.187695 7
 3.215754 9.288006 12.503795 7
 3.364952 9.339704 12.704679 7
 2.523983 9.183787 11.707820 7
 3.714597 9.291065 13.005692 7
 3.848248 9.314283 13.162552 7
 3.702993 9.434791 13.137812 7
 3.857107 9.455001 13.312135 7
 5.248151 9.549439 14.797598 7
 5.089444 9.635806 14.725255 7
 5.225109 9.663507 14.888613 7
 4.864355 9.365487 14.229855 7
 4.799243 9.464533 14.263789 7
 2.638889 10.000000 12.638889 7
 2.500000 10.000000 12.500000 7
 2.564223 9.843437 12.407669 7
 3.441815 8.638124 12.080000 7
 3.928511 9.222762 13.151294 7
 4.074122 9.245570 13.319716 7
 4.003203 9.356768 13.359999 7
 4.888464 9.546127 14.434599 7
 4.344721 9.139347 13.484087 7
 4.397971 9.039911 13.437904 7
 3.484770 8.751163 12.235989 7
 5.397138 9.790697 15.187840 7
 3.326754 8.652893 11.979712 7
 3.258701 8.765776 12.024535 7
 3.199464 8.588102 11.787640 7
 3.862267 9.882134 13.744407 7
 3.039750 9.448254 12.488033 7
 2.654395 8.768534 11.422997 7
 2.535372 8.717549 11.252988 7
 4.557470 9.579404 14.136884 7
 4.409207 9.553614 13.962831 7
 4.558940 9.462377 14.021327 7
 4.451516 9.419845 13.871370 7
 3.667729 8.858192 12.525965 7
 2.703299 9.902945 12.606254 7
 4.180976 9.319201 13.500198 7
 4.115375 9.448175 13.563563 7
 2.881615 9.660957 12.542597 7
 2.809819 8.748355 11.558248 7
 2.774133 8.871576 11.645771 7
 2.906578 8.940297 11.846937 7
 4.911258 9.657254 14.568518 7
 4.263486 9.510584 13.774087 7
 4.325822 9.399570 13.725408 7
 3.910711 9.593875 13.504601 7
 3.474867 9.459817 12.934709 7
 3.348336 9.496619 12.844980 7
 3.496610 9.345310 12.841944 7
 4.938622 9.210174 14.148820 7
 2.705582 9.795480 12.501080 7
 2.643671 9.691219 12.334908 7
 2.511587 9.677944 12.189547 7
 4.341845 9.257669 13.599529 7
 4.079746 9.898533 13.978278 7
 3.463461 9.594523 13.058005 7
 3.323871 9.619709 12.943605 7
 3.404548 9.731742 13.136305 7
 4.083990 8.923274 13.007296 7
 3.944699 8.990733 12.935464 7
 3.989815 8.849579 12.839427 7
 5.019590 9.767318 14.786913 7
 3.754241 9.597116 13.351374 7
 3.595502 9.551279 13.146811 7
 3.532054 9.698666 13.230734 7
 3.990979 9.487936 13.478930 7
 4.346334 9.701820 14.048162 7
 4.437894 9.836925 14.274823 7
 4.289364 9.844871 14.134247 7
 2.930575 9.774561 12.705149 7
 3.023593 9.671023 12.694634 7
 3.057844 9.830734 12.888592 7
 5.361442 9.235927 14.597371 7
 5.476700 9.225661 14.702364 7
 5.444541 9.386308 14.830850 7
 4.226120 9.176881 13.403021 7
 3.181200 9.641978 12.823195 7
 3.292801 9.734212 13.027032 7
 3.139652 9.752715 12.892382 7
 2.699648 8.977465 11.677167 7
 3.649877 9.659216 13.309114 7
 3.358270 9.867215 13.225496 7
 4.579339 9.775171 14.354517 7
 4.491577 9.682027 14.173612 7
 4.655893 9.654855 14.310755 7
 2.983458 9.338620 12.322109 7
 3.537035 9.225267 12.762334 7
 3.434815 9.243501 12.678339 7
 3.455557 9.105533 12.561128 7
 3.333333 10.000000 13.333333 7
 5.287799 9.750173 15.037969 7
 3.532003 8.938999 12.471043 7
 3.589677 9.086582 12.676296 7
 4.105875 9.132679 13.238580 7
 5.513700 9.525151 15.038853 7
 2.897183 9.084881 11.982105 7
 3.007979 9.034867 12.042899 7
 5.316194 8.940395 14.256588 7
 5.194096 9.013437 14.207544 7
 4.056133 9.035362 13.091525 7
 2.860039 9.305372 12.165444 7
 5.407197 9.504215 14.911418 7
 2.709552 9.461353 12.170934 7
 5.151985 9.824062 14.976050 7
 5.070296 9.897686 14.967989 7
 5.311906 9.455657 14.767570 7
 5.147015 9.724869 14.871892 7
 4.001079 8.619575 12.620701 7
 2.507870 9.539163 12.047051 7
 5.230484 9.305805 14.536296 7
 5.261732 9.161214 14.422956 7
 3.815947 9.000827 12.816808 7
 5.323923 9.351140 14.675073 7
 3.019313 8.927312 11.946683 7
 3.172261 8.877253 12.049567 7
 3.142503 9.012094 12.154643 7
 4.449424 9.311433 13.760872 7
 3.055556 10.000000 13.055556 7
 2.958133 9.896220 12.854362 7
 3.142920 8.472559 11.615558 7
 3.209192 8.323812 11.533084 7
 3.251038 8.433955 11.685073 7
 3.722469 9.726491 13.448973 7
 5.153835 9.233645 14.387488 7
 3.640723 8.979976 12.620736 7
 2.811066 8.983169 11.794289 7
 3.081324 9.268017 12.349378 7
 3.041671 9.147126 12.188840 7
 5.215716 9.421371 14.637093 7
 2.864630 8.666462 11.531164 7
 4.106539 8.681413 12.787992 7
 4.145428 8.562978 12.708453 7
 5.416667 10.000000 15.416667 7
 5.389453 9.894346 15.283801 7
 5.510119 9.866122 15.376245 7
 3.269875 8.919956 12.189882 7
 4.859877 9.151567 14.011463 7
 5.339095 9.054036 14.393141 7
 5.467297 9.110331 14.577628 7
 5.375149 9.146306 14.521454 7
 4.549316 8.906294 13.455637 7
 3.734205 8.298347 12.032618 7
 3.843820 8.384261 12.228146 7
 3.715698 8.424626 12.140386 7
 3.995246 9.121576 13.116856 7
 3.745319 9.851737 13.597070 7
 2.916667 10.000000 12.916667 7
 2.777778 10.000000 12.777778 7
 2.830021 9.875804 12.705832 7
 3.155647 9.894982 13.050640 7
 4.444445 10.000000 14.444445 7
 4.543991 9.895347 14.439344 7
 3.345575 8.847124 12.192755 7
 3.750000 10.000000 13.750000 7
 3.312670 8.536125 11.848866 7
 4.250460 8.816812 13.067305 7
 4.368865 8.786231 13.155120 7
 4.325902 8.925805 13.251740 7
 3.555865 8.817285 12.373200 7
 3.734553 8.954844 12.689433 7
 3.394715 8.972930 12.367699 7
 4.771643 8.955138 13.726797 7
 3.096404 9.548437 12.644862 7
 3.224978 9.529265 12.754262 7
 4.213342 9.427270 13.640630 7
 4.127783 8.810086 12.937903 7
 4.209990 8.931535 13.141563 7
 4.305555 10.000000 14.305555 7
 4.186213 9.892676 14.078895 7
 3.888889 10.000000 13.888889 7
 3.608349 9.325408 12.933778 7
 3.612837 9.785014 13.397856 7
 3.651424 9.198225 12.849675 7
 5.000000 10.000000 15.000000 7
 4.861111 10.000000 14.861111 7
 4.913227 9.878787 14.792024 7
 4.030770 8.744462 12.775268 7
 4.722222 10.000000 14.722221 7
 4.583333 10.000000 14.583333 7
 4.672441 9.880175 14.552617 7
 4.068501 9.585863 13.654384 7
 2.940107 9.226430 12.166579 7
 4.565258 9.317526 13.882795 7
 3.087309 8.611466 11.698843 7
 3.356488 8.323774 11.680340 7
 3.361814 8.439623 11.801506 7
 4.212398 8.713079 12.925509 7
 3.249555 9.409588 12.659177 7
 4.368891 9.918979 14.287871 7
 5.284987 9.862564 15.147553 7
 5.138889 10.000000 15.138889 7
 5.198089 9.915951 15.114045 7
 4.166667 10.000000 14.166667 7
 3.801892 8.497043 12.298991 7
 3.240989 9.832903 13.073906 7
 4.433757 8.899753 13.333527 7
 2.819856 9.758503 12.578382 7
 3.580338 9.431469 13.011831 7
 3.721320 9.071493 12.792851 7
 3.862135 9.102349 12.964514 7
 4.671092 9.415395 14.086490 7
 4.757458 9.336107 14.093568 7
 3.125162 9.365748 12.490948 7
 3.785517 9.194808 12.980350 7
 4.174572 9.047209 13.221813 7
 4.249196 9.746644 13.995850 7
 4.290026 9.051939 13.341986 7
 5.277778 10.000000 15.277779 7
 4.670959 9.291055 13.962016 7
 4.679265 9.535705 14.214983 7
 3.155239 9.457389 12.612657 7
 2.460074 9.329252 11.789363 7
 2.449164 9.443862 11.893058 7
 4.027778 10.000000 14.027779 7
 4.783470 9.602942 14.386431 7
 4.796529 9.717548 14.514089 7
 3.194444 10.000000 13.194444 7
 4.693612 9.760940 14.454557 7
 3.618646 8.343740 11.962456 7
 4.306518 9.603655 13.910189 7
 4.163507 9.540902 13.704424 7
 4.207045 9.648600 13.855661 7
 2.633778 8.656528 11.290368 7
 4.791667 9.921261 14.712933 7
 4.791667 9.816274 14.607950 7
 4.472039 8.800057 13.272120 7
 3.451617 8.848603 12.300278 7
 4.961455 9.310482 14.271948 7
 4.886454 9.767436 14.653902 7
 5.617157 9.754135 15.371291 7
 3.916076 8.502984 12.419112 7
 4.314149 8.687351 13.001536 7
 3.256537 9.919020 13.175570 7
 3.962588 9.923513 13.886103 7
 4.850798 9.263067 14.113878 7
 3.375226 8.749762 12.125047 7
 2.552602 8.594373 11.147052 7
 1 2 3 
 4 2 1 
 5 6 7 
 8 9 10 
 11 8 10 
 7 6 12 
 13 5 7 
 14 15 16 
 17 15 14 
 18 15 17 
 19 20 21 
 22 23 24 
 25 26 27 
 28 29 30 
 23 31 24 
 25 27 32 
 33 34 35 
 36 35 34 
 37 38 39 
 40 41 42 
 43 44 45 
 46 38 37 
 47 48 49 
 50 51 45 
 52 45 51 
 53 54 55 
 28 56 57 
 58 59 60 
 60 59 61 
 50 45 44 
 2 62 63 
 4 62 2 
 64 65 66 
 67 38 46 
 67 46 68 
 69 22 24 
 70 71 72 
 73 72 71 
 35 74 75 
 74 76 75 
 77 34 78 
 79 80 81 
 31 42 24 
 60 43 82 
 42 41 24 
 69 48 22 
 83 84 85 
 78 34 86 
 87 88 3 
 82 43 89 
 83 85 71 
 73 71 85 
 90 65 64 
 91 92 93 
 11 93 92 
 13 7 94 
 30 29 95 
 47 49 96 
 97 96 49 
 98 99 100 
 101 100 99 
 88 1 3 
 43 45 102 
 79 81 103 
 104 105 85 
 28 30 106 
 107 9 108 
 9 109 108 
 33 75 110 
 111 112 99 
 13 113 5 
 101 99 112 
 52 102 45 
 114 115 68 
 116 114 68 
 117 21 20 
 118 81 119 
 120 119 81 
 104 121 112 
 12 122 7 
 115 123 124 
 125 124 123 
 126 127 128 
 52 128 127 
 129 110 75 
 73 113 130 
 131 132 123 
 73 85 133 
 134 135 136 
 137 138 139 
 140 141 142 
 13 130 113 
 19 21 15 
 104 143 121 
 144 145 146 
 22 48 147 
 47 147 48 
 131 148 132 
 104 85 84 
 26 149 27 
 150 151 152 
 98 152 151 
 153 95 29 
 154 155 156 
 46 156 155 
 57 56 119 
 144 124 145 
 33 35 75 
 26 157 149 
 90 158 65 
 76 65 158 
 104 84 143 
 159 160 156 
 161 143 84 
 162 66 65 
 163 109 164 
 118 103 81 
 18 165 166 
 134 151 135 
 150 135 151 
 126 167 127 
 31 168 42 
 65 74 169 
 40 42 170 
 129 171 172 
 173 169 74 
 129 174 171 
 50 175 51 
 154 116 155 
 120 176 57 
 40 57 176 
 140 177 178 
 76 74 65 
 52 127 179 
 140 142 180 
 181 182 183 
 3 121 87 
 73 130 72 
 3 184 121 
 185 186 139 
 187 188 189 
 28 170 29 
 42 29 170 
 13 190 130 
 36 191 177 
 131 72 130 
 159 192 160 
 193 109 163 
 67 194 38 
 195 38 194 
 43 60 44 
 61 44 60 
 162 65 169 
 11 92 182 
 36 196 35 
 154 156 160 
 54 10 197 
 198 175 199 
 200 201 202 
 182 203 183 
 39 183 203 
 16 21 204 
 116 68 155 
 47 96 108 
 16 204 62 
 205 206 207 
 52 51 128 
 4 1 208 
 209 210 211 
 130 190 148 
 139 138 146 
 195 183 38 
 107 197 9 
 10 9 197 
 83 212 84 
 137 139 186 
 13 94 213 
 214 215 216 
 185 139 217 
 182 92 203 
 61 211 44 
 36 20 191 
 218 135 219 
 220 203 92 
 36 177 196 
 159 102 192 
 221 213 94 
 58 82 222 
 223 224 225 
 43 102 226 
 159 226 102 
 52 227 102 
 181 8 182 
 11 182 8 
 159 156 228 
 47 108 147 
 4 229 62 
 144 230 231 
 144 231 124 
 205 178 166 
 19 166 178 
 104 112 232 
 73 133 113 
 126 233 234 
 223 234 233 
 235 236 136 
 237 221 94 
 154 238 116 
 239 32 27 
 239 27 132 
 125 132 27 
 126 128 233 
 154 160 240 
 241 242 243 
 198 244 175 
 245 246 247 
 150 219 135 
 248 5 113 
 171 174 158 
 39 38 183 
 28 57 170 
 195 249 163 
 31 163 249 
 177 191 178 
 33 86 34 
 120 57 119 
 91 222 82 
 19 15 166 
 18 166 15 
 3 2 250 
 11 10 251 
 252 59 253 
 198 199 254 
 40 170 57 
 128 244 233 
 67 68 255 
 248 113 133 
 125 27 149 
 131 130 148 
 51 175 244 
 218 256 135 
 171 158 257 
 181 164 109 
 153 249 194 
 195 194 249 
 140 180 177 
 258 172 259 
 185 214 186 
 235 260 236 
 44 211 261 
 91 93 222 
 189 222 93 
 262 146 145 
 221 32 213 
 263 225 224 
 16 62 229 
 46 37 156 
 264 106 137 
 56 106 264 
 189 93 187 
 134 99 151 
 98 151 99 
 107 96 55 
 118 119 56 
 93 251 187 
 131 114 265 
 70 72 238 
 214 216 186 
 266 179 267 
 268 269 78 
 77 78 269 
 43 226 89 
 153 270 95 
 268 100 250 
 101 250 100 
 266 267 271 
 258 241 172 
 28 106 56 
 129 75 174 
 126 234 272 
 189 188 252 
 11 251 93 
 153 194 270 
 134 136 273 
 246 218 219 
 121 143 87 
 274 87 143 
 70 240 271 
 266 271 240 
 126 272 167 
 248 133 105 
 85 105 133 
 121 184 112 
 101 112 184 
 200 275 201 
 275 257 201 
 221 25 32 
 115 255 68 
 268 250 276 
 69 24 41 
 131 123 114 
 161 272 143 
 274 143 272 
 3 250 184 
 263 1 88 
 195 164 183 
 98 100 277 
 129 172 243 
 171 259 172 
 70 271 71 
 83 71 271 
 278 231 230 
 69 41 279 
 40 280 279 
 260 281 122 
 125 149 145 
 137 186 216 
 46 155 68 
 16 229 14 
 54 197 55 
 58 60 82 
 223 225 234 
 241 243 172 
 116 265 114 
 193 163 23 
 31 23 163 
 16 15 21 
 107 108 96 
 282 283 152 
 284 185 217 
 125 123 132 
 152 283 285 
 40 176 280 
 115 124 231 
 268 277 100 
 61 286 211 
 209 211 286 
 246 219 247 
 111 99 287 
 144 146 138 
 101 184 250 
 263 208 1 
 125 145 124 
 40 279 41 
 58 253 59 
 161 84 212 
 12 136 236 
 135 256 136 
 235 136 256 
 150 247 219 
 173 196 180 
 177 180 196 
 248 288 289 
 12 273 136 
 248 289 6 
 90 202 201 
 262 145 149 
 173 180 142 
 215 103 216 
 118 216 103 
 193 108 109 
 70 238 240 
 154 240 238 
 134 287 99 
 76 158 174 
 97 290 96 
 153 168 249 
 242 291 243 
 292 243 291 
 173 142 169 
 162 169 142 
 181 9 8 
 205 166 165 
 115 114 123 
 292 291 247 
 245 247 291 
 61 59 286 
 111 289 288 
 263 293 208 
 12 6 289 
 134 289 287 
 111 287 289 
 239 213 32 
 239 132 148 
 12 289 273 
 134 273 289 
 266 227 179 
 239 190 213 
 13 213 190 
 50 44 261 
 195 163 164 
 107 55 197 
 72 265 238 
 118 56 264 
 220 294 228 
 159 228 294 
 144 138 230 
 30 230 138 
 153 29 168 
 250 2 276 
 181 183 164 
 266 192 227 
 98 277 152 
 63 62 204 
 263 88 225 
 189 252 253 
 193 147 108 
 268 276 269 
 31 249 168 
 260 122 236 
 139 146 217 
 262 217 146 
 118 264 216 
 292 247 285 
 150 285 247 
 248 105 288 
 104 232 105 
 117 20 295 
 36 295 20 
 131 265 72 
 137 216 264 
 181 109 9 
 292 296 243 
 129 243 296 
 215 79 103 
 52 179 227 
 297 202 64 
 50 298 175 
 220 228 203 
 39 203 228 
 67 255 270 
 282 277 78 
 127 212 267 
 140 207 141 
 206 141 207 
 137 106 138 
 30 138 106 
 90 64 202 
 90 257 158 
 96 290 55 
 278 270 255 
 268 78 277 
 218 235 256 
 275 258 259 
 275 259 257 
 223 299 224 
 274 234 225 
 157 284 300 
 90 201 257 
 117 204 21 
 53 55 290 
 83 267 212 
 282 152 277 
 76 174 75 
 156 37 228 
 223 233 254 
 198 254 233 
 242 245 291 
 171 257 259 
 281 237 301 
 223 254 299 
 77 269 302 
 63 302 269 
 127 267 179 
 51 244 128 
 50 261 298 
 266 160 192 
 39 228 37 
 274 272 234 
 115 231 255 
 274 88 87 
 173 74 196 
 35 196 74 
 210 298 261 
 278 255 231 
 157 300 149 
 297 64 66 
 282 110 283 
 248 6 5 
 220 92 303 
 91 303 92 
 150 152 285 
 266 240 160 
 91 82 303 
 89 303 82 
 117 295 302 
 77 302 295 
 42 168 29 
 262 149 300 
 7 122 301 
 281 301 122 
 282 78 86 
 111 288 232 
 105 232 288 
 239 148 190 
 161 167 272 
 83 271 267 
 77 295 34 
 36 34 295 
 22 147 23 
 193 23 147 
 278 95 270 
 129 296 110 
 210 261 211 
 67 270 194 
 220 303 294 
 89 294 303 
 89 226 294 
 159 294 226 
 12 236 122 
 111 232 112 
 282 86 110 
 53 290 304 
 19 178 191 
 33 110 86 
 63 204 302 
 19 191 20 
 205 207 178 
 140 178 207 
 63 276 2 
 127 167 212 
 116 238 265 
 110 296 283 
 102 227 192 
 189 253 222 
 58 222 253 
 198 233 244 
 161 212 167 
 7 301 94 
 237 94 301 
 278 230 95 
 30 95 230 
 63 269 276 
 263 224 293 
 274 225 88 
 262 300 217 
 292 285 283 
 117 302 204 
 284 217 300 
 97 304 290 
 292 283 296 
