TITLE      =  "2D FE Unstructured grid data" 
VARIABLES = "X", "Y", "U", "Dom" 
ZONE T="P1", F=FEPOINT, N= 1037 E= 1949  ET=TRIANGLE 
 5.221864 8.314909 13.536799 6
 5.194563 8.453780 13.648365 6
 5.103426 8.308444 13.411902 6
 5.039473 8.409187 13.448689 6
 4.843771 7.742307 12.586115 6
 4.766234 7.666049 12.432329 6
 4.942622 7.631082 12.573743 6
 4.792192 8.827494 13.619698 6
 4.900336 8.739722 13.640077 6
 4.900708 8.889679 13.790402 6
 5.018963 8.822566 13.841542 6
 5.257092 4.951127 10.208214 6
 5.213462 4.793371 10.006821 6
 5.330429 4.858052 10.188478 6
 6.324848 6.482803 12.807629 6
 6.340768 6.646847 12.987595 6
 6.250611 6.565264 12.815850 6
 4.821928 7.549235 12.371208 6
 6.515219 5.280851 11.796038 6
 6.635678 5.241629 11.877278 6
 6.685428 5.362820 12.048223 6
 6.025010 7.132655 13.157654 6
 5.983438 7.024341 13.007771 6
 6.124147 7.063564 13.187697 6
 5.151765 4.907310 10.059070 6
 6.063959 6.945081 13.009027 6
 6.336443 7.604251 13.940689 6
 6.425355 7.527565 13.952908 6
 6.428321 7.684815 14.113132 6
 6.546347 5.390184 11.936498 6
 6.523942 7.618282 14.142213 6
 6.434163 6.527350 12.961489 6
 4.623034 6.302894 10.925962 6
 4.483908 6.449684 10.933633 6
 4.452465 6.301439 10.753943 6
 3.642383 7.890832 11.533295 6
 3.511250 7.910295 11.421622 6
 3.556786 7.772664 11.329535 6
 4.723909 5.068506 9.792418 6
 4.847394 4.979242 9.826642 6
 4.890870 5.132880 10.023755 6
 5.017903 4.996035 10.013930 6
 6.244118 7.184323 13.428428 6
 6.266187 7.027318 13.293496 6
 6.347591 7.127566 13.475138 6
 4.690049 8.661431 13.351505 6
 4.815514 8.530622 13.346159 6
 4.799302 8.686742 13.486066 6
 4.711200 8.307444 13.018685 6
 4.741633 8.163024 12.904704 6
 4.860852 8.234040 13.094933 6
 4.410115 6.599568 11.009732 6
 4.332772 6.515707 10.848532 6
 4.330570 6.401648 10.732274 6
 3.828752 6.011590 9.840405 6
 3.775733 5.907977 9.683772 6
 3.940711 5.922763 9.863533 6
 4.970822 4.493345 9.464156 6
 5.151458 4.531467 9.682914 6
 5.054547 4.627533 9.682069 6
 3.948256 8.299196 12.247517 6
 3.843820 8.384261 12.228133 6
 3.843518 8.238039 12.081617 6
 3.720820 6.912322 10.633224 6
 3.724187 6.781441 10.505699 6
 3.827966 6.839842 10.667884 6
 3.906242 5.805687 9.711981 6
 4.835890 8.349513 13.185444 6
 5.996070 7.736128 13.732202 6
 5.958368 7.915096 13.873465 6
 5.865686 7.811341 13.677028 6
 4.596781 5.505511 10.102315 6
 4.767055 5.487215 10.254283 6
 4.696230 5.614021 10.310269 6
 4.550435 6.184982 10.735449 6
 5.782885 4.915845 10.698703 6
 5.654538 5.009116 10.663634 6
 5.613523 4.876764 10.490269 6
 5.510816 4.964171 10.474971 6
 5.056756 4.851300 9.908054 6
 5.088861 4.732314 9.821164 6
 5.222429 5.423650 10.646073 6
 5.284202 5.287165 10.571362 6
 5.358247 5.399813 10.758054 6
 4.243496 4.933706 9.177223 6
 4.234445 4.810615 9.045073 6
 4.356071 4.907642 9.263729 6
 6.362182 7.384542 13.746712 6
 6.409706 7.225019 13.634713 6
 6.497157 7.378639 13.875782 6
 4.682370 6.145089 10.827488 6
 4.738197 6.044947 10.783169 6
 4.770121 6.206210 10.976357 6
 3.989424 5.286408 9.275866 6
 4.150170 5.339636 9.489842 6
 4.049580 5.430021 9.479642 6
 4.102524 5.218718 9.321269 6
 6.993425 6.836701 13.830101 6
 7.114738 6.939888 14.054600 6
 6.971315 7.008838 13.980131 6
 4.595613 8.187726 12.783386 6
 4.511151 8.049745 12.560952 6
 4.657690 8.056572 12.714318 6
 6.296477 6.291746 12.588198 6
 6.178900 6.299035 12.477915 6
 6.199009 6.150740 12.349727 6
 3.623137 6.846333 10.469550 6
 4.390341 4.809024 9.199372 6
 4.844717 6.127686 10.972421 6
 3.894337 4.620393 8.514749 6
 3.841367 4.732700 8.574087 6
 3.757726 4.591319 8.349066 6
 5.103247 4.421588 9.524822 6
 5.087639 5.919766 11.007413 6
 5.172787 6.042550 11.215343 6
 5.027209 6.035408 11.062633 6
 3.481136 6.425205 9.906422 6
 3.351527 6.339208 9.690817 6
 3.475854 6.270106 9.746038 6
 3.313665 6.154677 9.468423 6
 4.543251 6.941085 11.484383 6
 4.651010 6.849020 11.500075 6
 4.676975 7.006541 11.683562 6
 6.577372 6.121279 12.698629 6
 6.721230 6.140491 12.861697 6
 6.586689 6.236336 12.823001 6
 6.462371 6.286243 12.748590 6
 6.550437 6.430156 12.980576 6
 6.375656 6.392724 12.768363 6
 3.711240 7.702978 11.414296 6
 3.753700 7.593210 11.346994 6
 3.852340 7.744352 11.596770 6
 7.144457 7.206719 14.351155 6
 7.307000 7.237937 14.544914 6
 7.226987 7.311540 14.538504 6
 5.219138 6.610251 11.829408 6
 5.205322 6.783471 11.988808 6
 5.094726 6.711517 11.806270 6
 4.741090 4.800401 9.541490 6
 4.777213 4.665328 9.442531 6
 4.865252 4.762175 9.627425 6
 4.639359 4.733263 9.372622 6
 5.838173 7.692947 13.531118 6
 3.880420 7.593835 11.474338 6
 7.265111 7.137614 14.402703 6
 5.571858 7.994799 13.566674 6
 5.702821 7.933967 13.636799 6
 5.684880 8.078018 13.762916 6
 4.634031 5.393753 10.027797 6
 4.209164 6.676344 10.885574 6
 4.083702 6.608777 10.692549 6
 4.210244 6.520789 10.731089 6
 4.047033 6.461767 10.508864 6
 4.134202 8.347101 12.481356 6
 3.981994 8.390379 12.372429 6
 4.054682 8.266901 12.321641 6
 5.326624 8.394687 13.721329 6
 5.455002 8.323562 13.778586 6
 5.448535 8.493784 13.942335 6
 6.126753 7.757062 13.883814 6
 6.265494 7.724443 13.989928 6
 6.192368 7.834031 14.026393 6
 5.281036 8.087737 13.368803 6
 5.183760 7.973964 13.157752 6
 5.325183 7.953028 13.278233 6
 5.229473 7.854873 13.084371 6
 6.850639 5.821062 12.671679 6
 6.764899 5.732218 12.497092 6
 6.949240 5.690904 12.640113 6
 5.602718 6.699167 12.301880 6
 5.685526 6.823863 12.509381 6
 5.533053 6.801820 12.334871 6
 6.124452 5.399304 11.523726 6
 6.250869 5.309196 11.560038 6
 6.212828 5.480120 11.692926 6
 6.197004 5.609816 11.806797 6
 6.292776 5.740302 12.033056 6
 6.176824 5.767386 11.944183 6
 6.232662 6.425375 12.658007 6
 4.176283 7.510770 11.687124 6
 4.021476 7.534031 11.555577 6
 4.107207 7.367772 11.475050 6
 3.968200 7.421478 11.389753 6
 5.146527 5.660914 10.807441 6
 5.281844 5.563485 10.845330 6
 5.260324 5.714407 10.974737 6
 3.965637 4.859202 8.824862 6
 4.098414 4.774844 8.873277 6
 4.116724 4.919291 9.036036 6
 3.598216 6.522669 10.120951 6
 3.456605 6.579809 10.036499 6
 3.615132 6.728545 10.343753 6
 6.807890 5.608046 12.415898 6
 4.007149 7.706590 11.713810 6
 6.036715 7.571488 13.608199 6
 6.139481 7.641781 13.781262 6
 4.666161 4.606328 9.272484 6
 5.458508 4.842330 10.300823 6
 4.928938 8.408052 13.337020 6
 6.324090 5.449898 11.773957 6
 3.301613 6.552069 9.853762 6
 3.350997 6.695115 10.046195 6
 6.090784 7.860630 13.951410 6
 6.365672 4.825902 11.191538 6
 6.262121 4.844088 11.106180 6
 6.236480 4.716629 10.953077 6
 5.128078 5.529068 10.657150 6
 6.707098 6.267285 12.974358 6
 3.589037 5.975732 9.564837 6
 3.508303 6.124942 9.633316 6
 3.423122 6.009644 9.432843 6
 3.945071 5.537083 9.482202 6
 3.889776 5.689489 9.579324 6
 3.789196 5.580353 9.369601 6
 4.921981 8.624599 13.546603 6
 5.427352 5.250156 10.677493 6
 5.711236 4.758887 10.470097 6
 4.255176 8.445662 12.700887 6
 4.310953 8.315970 12.626977 6
 4.403582 5.393932 9.797542 6
 4.367148 5.274304 9.641478 6
 4.506149 5.309174 9.815350 6
 5.317335 8.524278 13.841631 6
 5.448219 6.482357 11.930573 6
 5.550116 6.335684 11.885791 6
 5.598416 6.473492 12.071901 6
 5.385935 6.762380 12.148322 6
 5.444646 6.913848 12.358500 6
 4.519849 5.664965 10.184843 6
 4.478020 5.792209 10.270258 6
 4.405655 5.647001 10.052689 6
 3.621964 6.380307 10.002346 6
 3.617217 6.218404 9.835690 6
 4.358768 5.740221 10.099030 6
 3.892871 7.484823 11.377776 6
 5.214862 8.622054 13.836935 6
 5.107150 8.727748 13.834905 6
 5.044873 8.595980 13.640875 6
 6.458292 4.860746 11.319003 6
 6.561650 4.911911 11.473532 6
 6.449646 4.988196 11.437809 6
 5.285058 6.963790 12.248864 6
 5.303810 6.851843 12.155670 6
 6.348578 6.008866 12.357425 6
 6.448305 6.119336 12.567616 6
 6.317267 6.096814 12.414060 6
 5.664499 7.207910 12.872407 6
 5.646004 7.361714 13.007725 6
 5.534051 7.227073 12.761131 6
 5.494450 7.360512 12.854969 6
 5.330009 6.659079 11.989097 6
 4.374683 7.131568 11.506306 6
 4.237511 7.038578 11.276149 6
 4.349758 7.017886 11.367702 6
 5.704483 6.374544 12.079008 6
 6.420067 5.386676 11.806718 6
 4.050963 8.481641 12.532654 6
 4.659850 8.878281 13.538150 6
 4.771643 8.955138 13.726801 6
 4.643481 9.022559 13.666050 6
 4.218152 7.147321 11.365538 6
 4.725826 4.925068 9.650892 6
 5.749829 6.701849 12.451668 6
 7.017651 7.162090 14.179713 6
 7.078317 7.069114 14.147407 6
 3.777973 6.416477 10.194523 6
 3.922608 6.355734 10.278405 6
 3.912579 6.474751 10.387398 6
 6.411714 5.261772 11.673455 6
 4.566793 6.573065 11.139898 6
 4.145229 7.234875 11.380173 6
 4.059261 7.122772 11.182103 6
 6.086353 6.241210 12.327544 6
 4.813176 7.911351 12.724578 6
 4.948983 7.864202 12.813233 6
 4.549316 8.906294 13.455635 6
 4.448827 8.208036 12.656919 6
 3.510746 5.861794 9.372609 6
 3.652773 5.830866 9.483697 6
 4.059628 6.004992 10.064672 6
 3.938392 6.086611 10.025057 6
 7.331566 6.341513 13.673056 6
 7.227332 6.377385 13.604692 6
 7.210431 6.242014 13.452418 6
 4.694573 8.537153 13.231760 6
 3.369663 6.458298 9.828041 6
 3.927176 6.221677 10.148920 6
 3.770183 6.156655 9.926905 6
 5.057843 6.603064 11.660928 6
 6.528897 7.259480 13.788356 6
 5.160952 8.874516 14.035480 6
 7.622010 6.659157 14.281142 6
 7.784500 6.655800 14.440272 6
 7.683464 6.786697 14.470152 6
 6.403944 4.719996 11.123901 6
 6.290893 6.904168 13.195044 6
 6.397560 6.995712 13.393252 6
 6.405883 6.864030 13.269889 6
 5.928920 7.612831 13.541750 6
 5.944004 4.749156 10.693134 6
 5.838029 4.800569 10.638571 6
 5.821872 4.670084 10.491929 6
 5.204967 6.904642 12.109626 6
 5.076235 6.911542 11.987808 6
 6.529588 5.553187 12.082747 6
 6.684817 5.529173 12.213960 6
 6.574519 5.663994 12.238484 6
 6.690910 5.668113 12.359002 6
 5.040743 7.991185 13.031971 6
 5.087064 7.877637 12.964735 6
 6.911581 7.128113 14.039675 6
 5.892580 6.036529 11.929090 6
 5.829604 5.902960 11.732546 6
 5.930879 5.901834 11.832690 6
 5.155808 4.309731 9.465519 6
 5.021509 4.346021 9.367509 6
 5.072066 4.195681 9.267725 6
 6.348769 6.192240 12.540988 6
 3.510660 7.636990 11.147746 6
 3.447775 7.505364 10.953226 6
 3.627092 7.551364 11.178544 6
 3.559541 7.424548 10.984178 6
 5.054564 6.800837 11.855428 6
 5.635381 6.053502 11.688875 6
 5.708464 6.179259 11.887712 6
 5.580335 6.184878 11.765200 6
 5.724779 7.792501 13.517287 6
 5.813758 7.908040 13.721805 6
 5.915690 4.628152 10.543814 6
 5.087629 7.126500 12.214157 6
 5.238856 7.112688 12.351569 6
 5.122115 7.262406 12.384552 6
 5.279744 7.252313 12.532081 6
 6.862116 6.880311 13.742407 6
 5.452739 5.522282 10.975014 6
 6.541129 5.048256 11.589344 6
 5.566566 4.755843 10.322391 6
 4.534422 7.490746 12.025226 6
 4.536436 7.376394 11.912889 6
 4.672927 7.475581 12.148559 6
 4.652640 7.350923 12.003610 6
 3.897923 5.397285 9.295246 6
 3.830001 5.262227 9.092270 6
 6.677935 6.532219 13.210131 6
 6.720660 6.397946 13.118581 6
 6.806112 6.512841 13.318930 6
 4.633508 5.739126 10.372659 6
 4.783075 5.736701 10.519794 6
 3.989231 4.708849 8.698092 6
 4.011201 4.580757 8.591979 6
 7.547463 6.782708 14.330150 6
 7.610132 6.881110 14.491228 6
 4.834458 7.281233 12.115724 6
 4.974308 7.230979 12.205327 6
 4.991446 7.348893 12.340375 6
 5.115304 7.631296 12.746631 6
 5.248849 7.594256 12.843134 6
 5.241812 7.726308 12.968142 6
 5.307677 5.989727 11.297406 6
 5.244080 6.136095 11.380183 6
 4.635546 8.455350 13.090939 6
 4.588533 8.601883 13.190451 6
 4.478090 8.516355 12.994486 6
 4.800302 5.598439 10.398751 6
 4.973298 8.502631 13.475947 6
 5.830169 8.029728 13.859906 6
 4.743224 8.436479 13.179738 6
 4.900292 7.423846 12.324172 6
 3.714106 6.028776 9.742947 6
 5.125394 7.766198 12.891625 6
 5.374543 7.049115 12.423672 6
 5.942912 7.503657 13.446568 6
 5.844851 7.405440 13.250285 6
 5.952569 7.343401 13.295964 6
 6.438160 5.975036 12.413179 6
 4.576108 7.607667 12.183829 6
 4.097756 4.656532 8.754304 6
 5.568016 7.505361 13.073389 6
 5.421016 7.473299 12.894331 6
 4.386937 7.957093 12.344090 6
 4.280149 8.028477 12.308685 6
 4.251044 7.871155 12.122264 6
 4.974689 6.722596 11.697313 6
 4.848577 6.738701 11.587310 6
 4.914988 6.591507 11.506522 6
 4.793907 6.642322 11.436256 6
 4.559124 5.076210 9.635341 6
 4.616161 4.974397 9.590564 6
 6.840674 6.409237 13.249882 6
 6.696742 7.478108 14.174830 6
 6.654553 7.582757 14.237289 6
 6.600378 7.433842 14.034202 6
 5.663185 8.228879 13.892079 6
 5.791213 8.162083 13.953313 6
 6.542108 7.522443 14.064532 6
 4.121198 7.040025 11.161291 6
 4.886099 5.298410 10.184518 6
 4.771914 5.224289 9.996213 6
 4.928779 4.868985 9.797761 6
 4.711037 7.794382 12.505468 6
 5.479351 5.804839 11.284180 6
 5.619124 5.899089 11.518199 6
 5.482297 5.971089 11.453375 6
 6.755052 6.772868 13.527899 6
 6.775290 6.640496 13.415767 6
 6.890939 6.756567 13.647481 6
 4.598866 7.059680 11.658594 6
 3.819483 6.289340 10.108891 6
 6.175334 6.712549 12.887865 6
 3.572550 6.630432 10.203068 6
 3.721129 6.618779 10.339982 6
 5.582434 7.111613 12.694055 6
 5.730698 7.082888 12.813588 6
 4.384297 4.111179 8.495462 6
 4.321894 4.212945 8.534830 6
 4.274329 4.054249 8.328570 6
 4.613519 6.446199 11.059754 6
 4.440813 5.201459 9.642297 6
 6.036983 7.427572 13.464540 6
 4.971705 8.284924 13.256661 6
 4.976001 8.131276 13.107316 6
 4.168963 6.230496 10.399514 6
 4.053305 6.149411 10.202773 6
 4.156271 6.085233 10.241560 6
 6.311346 5.599753 11.911071 6
 5.722375 7.494719 13.217102 6
 5.690073 7.627812 13.317888 6
 4.882155 5.653976 10.536138 6
 5.004355 5.621849 10.626212 6
 4.936058 5.781611 10.717683 6
 5.055205 5.730065 10.785279 6
 6.330822 5.175495 11.506286 6
 6.223165 5.123343 11.346486 6
 6.127608 5.195673 11.323254 6
 6.631111 6.026497 12.657586 6
 4.208792 4.172944 8.381740 6
 4.261810 6.154975 10.416839 6
 5.553058 7.626899 13.179967 6
 3.720242 7.024384 10.744708 6
 3.818640 6.978978 10.797697 6
 3.808242 7.139900 10.948225 6
 4.050350 6.303873 10.354276 6
 5.162831 5.003466 10.166289 6
 4.650256 5.168060 9.818328 6
 5.338184 6.231318 11.569497 6
 5.399867 6.102345 11.502208 6
 5.459824 6.216411 11.676235 6
 5.223313 4.165204 9.388492 6
 5.878323 6.748794 12.627116 6
 6.016706 6.747408 12.764103 6
 5.954902 6.877563 12.832458 6
 3.710642 6.294157 10.004867 6
 6.950447 6.333149 13.283575 6
 6.936630 6.474407 13.411010 6
 5.135509 6.219526 11.355042 6
 5.055723 6.299394 11.355129 6
 4.986338 6.169107 11.155457 6
 6.628255 6.795046 13.423280 6
 6.654490 6.668553 13.323014 6
 7.430632 7.238840 14.669447 6
 7.408843 7.126603 14.535419 6
 7.552121 7.134439 14.686525 6
 5.848434 6.998054 12.846485 6
 5.808165 6.849018 12.657174 6
 4.955557 6.285827 11.241401 6
 6.095220 6.845009 12.940211 6
 5.740473 5.837762 11.578220 6
 5.763447 5.978761 11.742196 6
 5.396432 5.675292 11.071716 6
 4.468042 7.715165 12.183263 6
 4.502781 7.876628 12.379463 6
 4.367325 7.805503 12.172888 6
 5.725727 6.942658 12.668384 6
 4.584562 7.758676 12.343288 6
 4.387048 8.081140 12.468244 6
 6.579016 7.137706 13.716704 6
 6.660239 7.031088 13.691309 6
 6.706936 7.148492 13.855403 6
 6.011650 5.978821 11.990449 6
 6.076811 4.962896 11.039676 6
 6.038838 5.092997 11.131812 6
 5.911179 5.023998 10.935149 6
 5.523358 5.669412 11.192756 6
 7.190681 7.054890 14.245552 6
 5.322007 5.177429 10.499422 6
 3.635663 6.101223 9.736954 6
 5.768535 6.088666 11.857182 6
 4.774349 6.316844 11.091218 6
 4.771996 6.822196 11.594228 6
 4.921848 6.875056 11.796933 6
 4.776976 6.939325 11.716340 6
 5.106018 6.117599 11.223628 6
 3.758244 7.836802 11.595119 6
 7.051257 6.380390 13.431627 6
 5.280290 6.342507 11.622795 6
 5.411267 6.342228 11.753489 6
 5.295508 6.477823 11.773334 6
 6.812208 7.044554 13.856741 6
 4.193398 8.227467 12.420923 6
 5.589419 4.442449 10.031847 6
 5.489552 4.544328 10.033863 6
 5.448073 4.418504 9.866565 6
 5.156132 5.318573 10.474707 6
 6.764845 5.204879 11.969687 6
 6.638291 5.119759 11.758016 6
 4.153456 7.978736 12.132254 6
 4.177986 8.088549 12.266596 6
 4.026791 8.054142 12.080996 6
 4.447915 8.350212 12.798171 6
 4.308178 8.162348 12.470585 6
 3.481774 7.339940 10.821806 6
 3.377903 7.389180 10.767168 6
 4.581967 7.159510 11.741529 6
 4.698600 7.260993 11.959638 6
 4.564543 7.276639 11.841233 6
 5.669859 5.435611 11.105455 6
 5.576156 5.295096 10.871238 6
 5.721006 5.298769 11.019749 6
 4.417337 6.191537 10.608920 6
 5.989936 6.513116 12.503032 6
 6.079998 6.386104 12.466084 6
 6.131536 6.546044 12.677554 6
 5.930738 4.904496 10.835207 6
 4.946111 4.241687 9.187773 6
 5.592066 7.860765 13.452841 6
 4.443876 8.669430 13.113338 6
 4.965833 5.912179 10.878025 6
 4.420889 5.943147 10.364076 6
 4.356926 6.065837 10.422810 6
 4.294610 5.933435 10.228097 6
 6.836936 6.272779 13.109692 6
 4.715678 7.142967 11.858687 6
 7.060996 6.145112 13.206086 6
 6.950093 6.061373 13.011447 6
 7.052244 6.037927 13.090149 6
 4.228453 5.249140 9.477617 6
 4.223283 5.113678 9.336987 6
 4.090350 5.075854 9.166236 6
 3.910329 7.913257 11.823655 6
 5.072101 8.187603 13.259739 6
 6.900599 6.621822 13.522398 6
 4.772575 5.352796 10.125386 6
 4.897430 5.420352 10.317784 6
 4.581558 8.759679 13.341271 6
 4.106899 8.169879 12.276844 6
 4.607901 5.981206 10.589136 6
 4.605456 6.088699 10.694186 6
 5.970793 8.053564 14.024367 6
 6.979423 6.705133 13.684528 6
 7.119430 6.782479 13.901893 6
 5.946052 6.642387 12.588427 6
 7.078156 6.658418 13.736549 6
 6.958768 6.202483 13.161225 6
 5.577623 5.550125 11.127728 6
 6.802744 7.636057 14.438787 6
 6.940618 7.663868 14.604468 6
 6.841384 7.754109 14.595478 6
 6.726094 5.043987 11.770054 6
 6.460231 6.637274 13.097485 6
 4.531424 4.616923 9.148349 6
 4.485788 4.489397 8.975183 6
 4.613379 4.491912 9.105282 6
 5.305802 8.228199 13.534026 6
 4.707977 7.588343 12.296371 6
 4.770649 7.392766 12.163461 6
 4.293717 4.469721 8.763440 6
 4.224833 4.577634 8.802475 6
 4.176639 4.432660 8.609309 6
 7.158202 7.461568 14.619739 6
 6.990125 7.435170 14.425271 6
 7.130754 7.349192 14.479923 6
 5.097023 7.394842 12.491891 6
 4.009738 4.968693 8.978457 6
 7.176009 6.071414 13.247399 6
 5.804010 5.401198 11.205188 6
 6.734489 6.014736 12.749206 6
 4.932013 4.647442 9.579449 6
 3.919438 7.045442 10.964954 6
 6.308508 6.782358 13.090851 6
 6.882695 7.457458 14.340137 6
 6.758337 7.389542 14.147856 6
 6.906394 7.355773 14.262145 6
 4.951414 7.741698 12.693158 6
 6.339557 4.936695 11.276223 6
 4.352052 8.542392 12.894486 6
 5.019200 7.792492 12.811734 6
 5.102235 8.506653 13.608906 6
 4.045402 7.234003 11.279477 6
 5.626664 7.003680 12.630349 6
 5.004020 5.485520 10.489541 6
 5.105770 5.420438 10.526209 6
 5.425395 8.066589 13.491997 6
 7.042936 6.486008 13.528918 6
 3.764626 7.978360 11.743053 6
 4.113810 4.543948 8.657765 6
 3.798507 5.780425 9.578991 6
 4.257246 8.596165 12.853452 6
 4.145428 8.562978 12.708448 6
 6.110510 5.681526 11.792010 6
 4.597871 7.963859 12.561787 6
 5.020781 5.135246 10.156030 6
 4.314149 8.687351 13.001541 6
 5.666567 5.153465 10.820012 6
 5.531351 5.169324 10.700654 6
 5.788845 5.072317 10.861135 6
 4.979389 5.225710 10.205102 6
 5.810320 5.634842 11.445148 6
 5.925596 5.599349 11.524923 6
 5.888014 5.768173 11.656170 6
 5.180929 8.201887 13.382847 6
 4.314122 4.746890 9.061024 6
 4.472039 8.800057 13.272127 6
 3.741936 5.683527 9.425523 6
 6.001570 5.691066 11.692611 6
 4.303561 6.275100 10.578716 6
 7.396502 6.566244 13.962722 6
 7.451444 6.685929 14.137353 6
 7.303811 6.638126 13.941908 6
 6.202116 5.874313 12.076404 6
 6.049241 5.823913 11.873128 6
 5.733994 5.716205 11.450192 6
 5.693315 5.570797 11.264099 6
 6.784105 7.514131 14.298217 6
 6.425797 5.666373 12.092144 6
 3.838081 6.567790 10.405941 6
 7.139313 6.342252 13.481544 6
 4.856603 7.145395 12.002036 6
 4.349597 5.130523 9.480146 6
 7.047115 7.545722 14.592817 6
 5.447165 8.199057 13.646244 6
 4.900376 8.008267 12.908692 6
 5.368001 7.803230 13.171249 6
 6.107842 5.934070 12.041887 6
 4.998565 8.691900 13.690489 6
 5.149235 6.503205 11.652456 6
 4.142662 7.770654 11.913393 6
 4.062350 7.835704 11.898121 6
 5.087319 4.059354 9.146649 6
 6.830453 7.287535 14.117967 6
 5.342384 7.156353 12.498753 6
 7.204169 7.596014 14.800152 6
 5.611839 4.572730 10.184548 6
 4.385042 4.553868 8.938916 6
 5.554943 8.137086 13.692045 6
 6.158843 7.484761 13.643597 6
 6.214417 7.341128 13.555535 6
 6.287699 7.489812 13.777499 6
 6.408441 5.539903 11.948322 6
 5.608884 5.769507 11.378386 6
 3.603015 8.014289 11.617374 6
 3.963344 8.167383 12.130794 6
 6.065762 6.644947 12.710699 6
 6.488848 6.925975 13.414807 6
 5.281466 7.474548 12.756041 6
 5.354449 7.365193 12.719667 6
 4.872307 7.020385 11.892726 6
 4.514215 4.754536 9.268757 6
 6.062716 5.543975 11.606667 6
 4.252996 7.294376 11.547436 6
 4.354853 7.244166 11.599080 6
 4.836123 5.901148 10.737288 6
 6.045297 6.091761 12.137034 6
 4.106539 8.681413 12.787993 6
 4.001079 8.619575 12.620697 6
 3.538919 6.806466 10.345471 6
 3.826000 6.707777 10.533858 6
 7.112624 5.953517 13.066109 6
 6.618821 6.336739 12.955536 6
 5.020481 7.500053 12.520571 6
 4.783399 8.029253 12.812704 6
 7.346310 6.753424 14.099711 6
 5.384756 8.631455 14.016222 6
 5.126162 5.097726 10.223881 6
 4.504116 4.885536 9.389663 6
 5.001524 7.020991 12.022543 6
 6.909560 7.540865 14.450414 6
 5.957688 6.180433 12.138100 6
 5.353764 4.366374 9.720121 6
 5.331782 4.453492 9.785253 6
 5.237947 4.414595 9.652525 6
 7.713061 6.929952 14.643018 6
 6.552126 6.569087 13.121190 6
 6.538285 6.701602 13.239877 6
 4.368837 8.434118 12.803005 6
 4.186042 5.012258 9.198324 6
 6.618520 5.443135 12.061626 6
 5.261233 5.065129 10.326358 6
 5.372214 4.965160 10.337361 6
 5.429159 5.090853 10.519998 6
 4.518532 9.039821 13.558378 6
 6.091345 5.299238 11.390562 6
 6.817706 7.185980 14.003664 6
 5.884179 7.129126 13.013306 6
 6.233740 7.586770 13.820507 6
 4.701678 5.877624 10.579324 6
 4.531622 8.420821 12.952486 6
 4.562901 8.315740 12.878691 6
 6.203375 6.835410 13.038768 6
 3.969505 6.572711 10.542284 6
 5.449233 7.590049 13.039298 6
 4.031507 7.932813 11.964387 6
 4.187191 6.370886 10.558137 6
 7.808046 6.816317 14.624335 6
 5.292158 4.288077 9.580217 6
 5.233618 6.250854 11.484476 6
 3.953669 7.810437 11.764180 6
 4.888825 6.027974 10.916813 6
 5.545734 5.434110 10.979833 6
 4.921330 7.526054 12.447429 6
 5.721786 4.621486 10.343250 6
 5.838165 4.542286 10.380425 6
 4.593714 5.602470 10.196200 6
 6.173964 6.936758 13.110703 6
 4.246490 6.045128 10.291674 6
 3.668547 7.791031 11.459663 6
 3.803937 5.090874 8.894841 6
 3.947360 5.059838 9.007233 6
 3.918432 5.171042 9.089509 6
 5.375283 5.875870 11.251145 6
 5.038819 5.830047 10.868871 6
 4.852577 8.123547 12.976171 6
 5.711939 4.496269 10.208182 6
 4.982566 4.748600 9.731163 6
 4.963239 7.116050 12.079315 6
 4.979978 4.129759 9.109714 6
 3.755050 7.484173 11.239304 6
 3.678781 7.358489 11.037350 6
 3.839210 7.390600 11.229890 6
 3.572624 7.136677 10.709386 6
 3.620426 6.995499 10.616014 6
 3.674249 7.116525 10.790855 6
 3.512885 7.022688 10.535657 6
 4.449084 4.999966 9.449061 6
 7.024794 7.314281 14.339049 6
 6.311791 7.282618 13.594392 6
 6.236439 5.984707 12.221123 6
 5.778982 7.195742 12.974727 6
 5.513087 7.016447 12.529537 6
 5.599947 6.895392 12.495342 6
 6.124454 7.204599 13.329042 6
 3.924407 6.778689 10.703168 6
 3.918741 6.904608 10.823425 6
 3.706648 6.508783 10.215506 6
 6.631719 7.227518 13.859213 6
 4.910671 4.378747 9.289400 6
 6.177315 4.920896 11.098183 6
 6.246135 5.013011 11.259118 6
 5.466787 5.362625 10.829396 6
 6.070055 7.308872 13.378916 6
 5.215215 8.747265 13.962489 6
 4.518124 4.381610 8.899720 6
 4.498084 6.058089 10.556210 6
 4.250460 8.816812 13.067317 6
 4.368865 8.786231 13.155131 6
 4.325902 8.925805 13.251735 6
 4.231218 7.410373 11.641656 6
 6.552555 5.914373 12.466901 6
 6.448441 5.864358 12.312772 6
 6.516156 5.774285 12.290412 6
 4.380692 6.783002 11.163749 6
 4.327588 6.682076 11.009719 6
 4.485376 6.682701 11.168123 6
 6.922612 7.239156 14.161744 6
 6.706133 7.730347 14.436461 6
 5.622384 5.656478 11.278847 6
 3.713003 8.075606 11.788685 6
 4.282556 6.957081 11.239695 6
 4.143545 6.940578 11.084188 6
 4.203537 6.832942 11.036539 6
 4.446509 7.322335 11.768899 6
 4.440694 7.457618 11.898368 6
 4.426431 4.309072 8.735502 6
 4.467340 4.192899 8.660232 6
 6.643902 5.788945 12.432821 6
 5.209591 7.373124 12.582740 6
 5.267864 5.847190 11.115060 6
 5.149359 5.806612 10.955981 6
 4.698592 8.771091 13.469708 6
 4.701714 6.395284 11.097031 6
 5.830730 7.559935 13.390667 6
 4.328856 4.652014 8.980879 6
 4.216404 4.703088 8.919499 6
 6.722287 6.909847 13.632115 6
 5.775057 6.563979 12.339025 6
 5.705297 6.482441 12.187727 6
 5.842587 6.430380 12.272950 6
 4.347909 7.403681 11.751644 6
 7.421852 6.461104 13.882934 6
 7.514866 6.585629 14.100476 6
 5.351101 5.778658 11.129754 6
 4.102388 6.731255 10.833711 6
 4.042965 6.835967 10.879004 6
 5.193571 5.926731 11.120303 6
 5.461146 4.733736 10.194865 6
 4.421032 4.682944 9.103983 6
 4.836103 4.272596 9.108684 6
 5.154410 7.012564 12.166996 6
 3.919992 8.025494 11.945555 6
 3.914390 6.657681 10.572146 6
 4.209990 8.931535 13.141554 6
 4.127783 8.810086 12.937951 6
 4.148323 8.448848 12.597218 6
 5.493474 7.799499 13.292989 6
 5.460635 7.695292 13.155944 6
 7.083399 5.771421 12.854794 6
 6.972481 5.823722 12.796172 6
 5.533744 6.581156 12.114900 6
 5.557873 5.064461 10.622314 6
 5.462663 7.912985 13.375672 6
 4.350440 5.843766 10.194244 6
 3.578867 7.278636 10.857586 6
 5.124939 8.088936 13.213910 6
 5.983962 7.228858 13.212818 6
 4.291726 6.598414 10.890197 6
 5.778348 6.292717 12.071048 6
 5.895851 6.288805 12.184636 6
 5.344021 7.672044 13.016081 6
 6.332316 5.886735 12.219029 6
 7.457831 7.028260 14.486068 6
 4.274296 5.361598 9.635920 6
 4.867213 4.558381 9.425581 6
 7.420647 6.829785 14.250411 6
 7.499552 6.909820 14.409351 6
 6.130311 4.813898 10.944180 6
 5.348897 7.561344 12.910260 6
 6.395429 7.818680 14.214106 6
 6.886796 5.934924 12.821696 6
 4.476462 7.048297 11.524813 6
 4.404589 6.915154 11.319795 6
 4.689008 6.623161 11.312202 6
 4.802021 6.536401 11.338457 6
 4.212398 8.713079 12.925527 6
 5.864811 7.265457 13.130261 6
 5.756623 7.304313 13.060933 6
 6.530414 5.177039 11.707421 6
 6.432092 5.129369 11.561434 6
 3.808077 4.401528 8.209620 6
 3.818960 4.513000 8.331972 6
 3.672231 4.470662 8.142908 6
 3.875270 4.965647 8.840947 6
 6.631585 5.002763 11.634313 6
 7.003452 6.582570 13.586003 6
 4.314944 5.007007 9.321969 6
 4.692145 6.510069 11.202249 6
 3.770442 7.300319 11.070844 6
 5.373848 4.542871 9.916709 6
 5.648269 6.275876 11.924135 6
 6.867051 6.143633 13.010657 6
 4.251238 7.728322 11.979628 6
 6.533076 7.023215 13.556279 6
 5.515975 6.101072 11.617039 6
 7.201639 6.555224 13.756835 6
 7.141817 6.454616 13.596404 6
 7.288534 6.484237 13.772750 6
 4.818504 4.870011 9.688519 6
 4.203794 5.453638 9.657463 6
 4.104136 5.545857 9.650039 6
 3.704860 7.213806 10.918759 6
 3.874635 7.269837 11.144549 6
 5.791789 5.519647 11.311417 6
 4.620383 4.846562 9.466946 6
 7.006169 5.945679 12.951829 6
 3.823353 8.107009 11.930429 6
 4.141549 7.641022 11.782639 6
 6.465974 7.128116 13.594078 6
 3.971478 7.312364 11.283916 6
 4.667230 7.685610 12.352893 6
 4.614072 7.870597 12.484722 6
 5.911627 5.479372 11.390976 6
 4.361379 7.659491 12.020934 6
 4.454059 7.580986 12.035101 6
 4.650166 5.279795 9.929980 6
 7.307018 7.490772 14.797766 6
 4.633486 4.354214 8.987685 6
 6.403038 5.775277 12.178281 6
 4.212558 5.854231 10.066830 6
 4.248597 5.748077 9.996719 6
 4.038553 5.658641 9.697242 6
 5.881123 6.555159 12.436267 6
 4.464545 5.116072 9.580637 6
 4.357193 7.543555 11.900808 6
 4.433757 8.899753 13.333531 6
 6.527028 6.032881 12.559880 6
 4.042265 4.458383 8.500659 6
 3.921630 4.489553 8.411190 6
 3.952791 4.375410 8.328208 6
 7.256520 6.959765 14.216260 6
 3.440204 7.103339 10.543631 6
 3.397062 6.972573 10.369720 6
 6.746459 5.836737 12.583174 6
 6.783448 5.935107 12.718533 6
 4.522327 3.976162 8.498475 6
 4.491944 4.086090 8.578020 6
 4.394097 4.005012 8.399095 6
 4.140000 7.877362 12.017436 6
 6.681101 5.925217 12.606294 6
 5.089581 5.223879 10.313461 6
 5.208089 5.193843 10.401929 6
 4.517680 5.427602 9.945304 6
 5.477098 6.708196 12.185295 6
 5.923215 5.140003 11.063191 6
 5.802876 5.196856 10.999707 6
 4.504460 6.802976 11.307484 6
 6.134613 6.033668 12.168262 6
 5.028214 7.709449 12.737699 6
 3.943378 7.179153 11.122612 6
 5.436562 6.612066 12.048623 6
 4.598559 5.847157 10.445743 6
 4.526024 5.917530 10.443587 6
 6.594790 6.921363 13.516133 6
 4.460289 5.534797 9.995115 6
 4.314150 5.465457 9.779634 6
 4.337113 5.571017 9.908166 6
 4.021440 5.155866 9.177340 6
 5.175752 4.646007 9.821751 6
 4.309435 6.850822 11.160310 6
 3.603919 7.676636 11.280643 6
 7.583470 6.996770 14.580219 6
 5.430542 4.274333 9.704858 6
 5.560513 4.315344 9.875836 6
 6.010065 5.411418 11.421459 6
 4.008707 5.781964 9.790722 6
 6.621301 7.323880 13.945160 6
 5.018191 5.345380 10.363573 6
 4.001836 6.698579 10.700480 6
 5.627614 4.668246 10.295837 6
 5.544349 8.245235 13.789604 6
 4.844534 4.120267 8.964782 6
 5.585395 7.733250 13.318662 6
 4.067450 4.328677 8.396132 6
 4.286083 6.765038 11.051184 6
 4.397971 9.039911 13.437905 6
 6.036800 4.862010 10.898787 6
 4.595124 6.705735 11.300904 6
 5.960152 6.379493 12.339620 6
 4.746282 4.023415 8.769679 6
 4.695701 4.120321 8.816002 6
 4.615785 4.052131 8.667894 6
 5.821927 5.301469 11.123368 6
 6.122543 7.390570 13.513103 6
 4.712487 6.733693 11.446219 6
 4.751874 4.209885 8.961744 6
 5.209268 6.416811 11.626088 6
 5.162119 7.494687 12.656835 6
 6.571133 7.724998 14.296120 6
 7.180607 6.662320 13.842904 6
 7.334547 7.043273 14.377799 6
 4.546166 5.191502 9.737680 6
 4.022027 6.978586 11.000679 6
 5.102062 6.414493 11.516572 6
 5.008130 6.495294 11.503445 6
 5.906887 8.149755 14.056646 6
 6.143450 5.044470 11.187895 6
 4.296638 4.351752 8.648392 6
 5.298054 4.647369 9.945406 6
 3.834062 4.861106 8.695195 6
 4.169448 5.653909 9.823399 6
 4.189581 4.291617 8.481196 6
 5.743260 7.394180 13.137435 6
 6.075419 4.729247 10.804638 6
 6.504592 5.462617 11.967186 6
 4.747875 4.543130 9.290994 6
 4.776282 7.054303 11.830625 6
 5.359335 4.752727 10.112046 6
 3.467101 7.227109 10.694302 6
 6.427768 6.742944 13.170690 6
 5.345887 6.568316 11.914207 6
 5.402276 7.244334 12.646634 6