TITLE      =  "2D FE Unstructured grid data" 
VARIABLES = "X", "Y", "U", "Dom" 
ZONE T="P1", F=FEPOINT, N= 268 E= 466  ET=TRIANGLE 
 2.457381 7.696479 10.153948 18
 2.330687 7.682017 10.012798 18
 2.433056 7.563674 9.996822 18
 2.534269 7.374473 9.908844 18
 2.443488 7.311311 9.754900 18
 2.579876 7.256678 9.836667 18
 3.642383 7.890832 11.533307 18
 3.511250 7.910295 11.421634 18
 3.556786 7.772664 11.329548 18
 3.421979 7.817657 11.239735 18
 2.282214 7.583952 9.866255 18
 2.815677 6.244118 9.059889 18
 2.974875 6.266385 9.241354 18
 2.871979 6.348311 9.220382 18
 2.938483 6.124635 9.063214 18
 3.948256 8.299196 12.247530 18
 3.843820 8.384261 12.228149 18
 3.843518 8.238039 12.081629 18
 3.734205 8.298347 12.032631 18
 2.305840 7.476904 9.782832 18
 2.615458 6.362182 8.977736 18
 2.774981 6.409706 9.184782 18
 2.621361 6.497158 9.118613 18
 2.988788 8.221578 11.210447 18
 2.848468 8.223381 11.071938 18
 2.938308 8.067600 11.005997 18
 3.081775 8.353309 11.435167 18
 2.937531 8.385432 11.323054 18
 2.417764 7.184912 9.602783 18
 2.601451 8.230957 10.832497 18
 2.705326 8.289047 10.994464 18
 2.563487 8.380516 10.944084 18
 3.099504 7.861408 10.961013 18
 3.087139 7.754130 10.841370 18
 3.246407 7.816896 11.063399 18
 3.455959 8.054653 11.510699 18
 3.603015 8.014289 11.617389 18
 3.522590 8.166489 11.689164 18
 2.826501 8.085840 10.912438 18
 2.313748 7.309247 9.623099 18
 2.418204 7.433827 9.852137 18
 2.583979 7.497101 10.081187 18
 2.759440 7.514537 10.274081 18
 2.666480 7.624243 10.290824 18
 4.134202 8.347101 12.481359 18
 3.981994 8.390379 12.372437 18
 4.054682 8.266901 12.321650 18
 3.167779 7.683233 10.851118 18
 2.824404 7.342330 10.166842 18
 2.669007 7.374741 10.043855 18
 2.908478 7.476202 10.384787 18
 2.685320 8.413293 11.098693 18
 3.245531 7.230278 10.475917 18
 3.155838 7.313945 10.469895 18
 3.091022 7.181091 10.272219 18
 3.131414 6.406967 9.538473 18
 2.996739 6.405838 9.402666 18
 3.095015 6.292739 9.387850 18
 2.952770 7.357646 10.310527 18
 3.067519 7.422348 10.489979 18
 2.210943 7.419106 9.630143 18
 3.030931 7.537596 10.568631 18
 3.045278 7.292064 10.337457 18
 3.637452 8.120075 11.757603 18
 4.050963 8.481641 12.532660 18
 3.301613 6.552069 9.853781 18
 3.350997 6.695115 10.046207 18
 3.199978 6.629252 9.829330 18
 2.799217 7.693826 10.493148 18
 2.923133 7.614957 10.538190 18
 1.590732 7.730081 9.320885 18
 1.716652 7.782197 9.498925 18
 1.610746 7.862753 9.473568 18
 2.808614 7.168708 9.977427 18
 2.942381 7.236932 10.179422 18
 1.904055 7.879086 9.783217 18
 1.837587 7.992599 9.830255 18
 1.796929 7.883687 9.680691 18
 2.740520 6.528897 9.269519 18
 1.961229 7.996693 9.958002 18
 3.510660 7.636990 11.147758 18
 3.447775 7.505364 10.953242 18
 3.627092 7.551364 11.178587 18
 3.031659 8.517939 11.549678 18
 1.687510 7.652841 9.340425 18
 3.131418 8.196046 11.327550 18
 2.318282 8.054093 10.372461 18
 2.336846 7.907362 10.244299 18
 2.449202 7.997257 10.446553 18
 3.313665 6.154677 9.468434 18
 3.351527 6.339208 9.690827 18
 3.222589 6.303521 9.526201 18
 2.307197 8.331261 10.638535 18
 2.310130 8.199123 10.509340 18
 2.416319 8.226562 10.642963 18
 3.063891 7.641549 10.705541 18
 2.198971 7.963866 10.162922 18
 3.173663 6.202900 9.376652 18
 2.944302 7.070577 10.014990 18
 2.884941 6.941597 9.826649 18
 3.017774 6.951748 9.969626 18
 2.956478 6.808999 9.765575 18
 2.207673 8.252357 10.460116 18
 2.991874 7.710558 10.702528 18
 2.521891 6.696742 9.218738 18
 2.417243 6.654553 9.071898 18
 2.566158 6.600378 9.166638 18
 2.477557 6.542108 9.019763 18
 2.793774 7.994339 10.788201 18
 2.686939 7.956045 10.643071 18
 2.792672 7.848142 10.640916 18
 3.162837 7.963872 11.126805 18
 3.224849 6.748847 9.973793 18
 2.688408 6.845854 9.534369 18
 2.552580 6.887485 9.440170 18
 2.618056 6.741405 9.359564 18
 2.740686 8.172968 10.913748 18
 2.862174 6.578849 9.441115 18
 2.968595 6.656877 9.625580 18
 2.851676 6.706321 9.558096 18
 3.282170 7.982706 11.264970 18
 2.035455 7.380548 9.416091 18
 2.150744 7.318586 9.469421 18
 2.112930 7.459446 9.572466 18
 2.464019 7.022563 9.486688 18
 2.586080 7.112348 9.698531 18
 2.626130 8.127058 10.753282 18
 2.891120 7.950875 10.842093 18
 2.079071 7.912491 9.991638 18
 2.120774 7.803924 9.924775 18
 2.261610 7.806186 10.067883 18
 2.006415 7.842937 9.849426 18
 3.018186 7.962210 10.980492 18
 3.026406 8.119363 11.145864 18
 2.177634 8.374730 10.552445 18
 3.277380 6.882189 10.159671 18
 3.118363 6.849500 9.967965 18
 3.163727 6.971000 10.134833 18
 1.908202 7.358087 9.266372 18
 2.020253 7.267929 9.288276 18
 3.109078 8.066141 11.175308 18
 2.437755 6.885254 9.323118 18
 3.219912 7.099728 10.319743 18
 2.574666 7.007318 9.582094 18
 2.438167 8.359035 10.797284 18
 2.126284 8.081773 10.208140 18
 2.057845 8.012397 10.070323 18
 2.556417 7.605742 10.162259 18
 2.440898 7.840679 10.281670 18
 2.551204 7.791159 10.342462 18
 2.592933 7.696841 10.289874 18
 2.651590 6.943803 9.595497 18
 2.794759 8.349617 11.144462 18
 2.796300 8.460410 11.256800 18
 3.081839 7.047856 10.129802 18
 2.493084 6.794065 9.287248 18
 3.209192 8.323812 11.533089 18
 3.142920 8.472559 11.615557 18
 3.384366 7.927693 11.312156 18
 3.338727 8.074183 11.413008 18
 1.751417 7.973350 9.724841 18
 2.660093 7.848749 10.508935 18
 2.213852 8.122400 10.336335 18
 2.510188 6.287699 8.797976 18
 2.660096 6.213124 8.873313 18
 3.764626 7.978360 11.743069 18
 2.078767 7.666364 9.745213 18
 2.034003 7.560336 9.594427 18
 2.176873 7.551620 9.728584 18
 1.860916 8.142054 10.003044 18
 2.010645 8.122132 10.132857 18
 2.929271 8.493922 11.423273 18
 3.064626 6.488285 9.553005 18
 3.349836 7.708594 11.058532 18
 2.811126 6.830569 9.641802 18
 3.715698 8.424626 12.140390 18
 2.559854 7.907807 10.467755 18
 2.580730 8.027303 10.608126 18
 4.145428 8.562978 12.708447 18
 4.001079 8.619575 12.620712 18
 3.263058 7.656786 10.919947 18
 2.508919 8.137167 10.646173 18
 3.711240 7.702978 11.414309 18
 3.758244 7.836802 11.595137 18
 3.668547 7.791031 11.459675 18
 1.973966 7.465500 9.439548 18
 1.894796 8.283788 10.178653 18
 1.767289 8.201658 9.969021 18
 2.717383 6.311791 9.029269 18
 2.796990 6.126307 8.923384 18
 2.359423 7.771815 10.131330 18
 2.772497 6.631569 9.404167 18
 1.675653 7.515348 9.191072 18
 1.761743 7.409687 9.171508 18
 1.793636 7.572269 9.365980 18
 1.862727 7.473275 9.336089 18
 2.209255 7.681920 9.891268 18
 2.503778 8.272970 10.776831 18
 3.713003 8.075606 11.788697 18
 2.011927 8.365358 10.377363 18
 2.106870 8.283138 10.390090 18
 3.090335 6.712043 9.802482 18
 1.976478 7.746914 9.723475 18
 2.709536 7.054564 9.764208 18
 2.821318 7.035058 9.856482 18
 3.414002 6.824035 10.238134 18
 3.397062 6.972573 10.369726 18
 4.148323 8.448848 12.597219 18
 4.255176 8.445662 12.700892 18
 2.911109 7.846158 10.757359 18
 2.381827 6.524349 8.906273 18
 2.472568 6.425853 8.898517 18
 2.686038 7.749208 10.435348 18
 2.723051 7.266156 9.989315 18
 3.505209 8.273164 11.778456 18
 3.625255 8.229438 11.854775 18
 3.618646 8.343740 11.962461 18
 2.974607 6.528362 9.503064 18
 2.015341 8.240054 10.255483 18
 2.684746 7.162374 9.847228 18
 3.823353 8.107009 11.930441 18
 3.919992 8.025494 11.945567 18
 3.963344 8.167383 12.130799 18
 2.870167 6.466660 9.336920 18
 3.182489 7.548820 10.731415 18
 3.205936 7.420095 10.626135 18
 1.943088 8.197810 10.140976 18
 3.064560 6.175085 9.239743 18
 1.499858 7.947772 9.447695 18
 1.500886 7.797293 9.298243 18
 1.977435 7.641033 9.618557 18
 3.340920 7.072015 10.413037 18
 3.440204 7.103339 10.543646 18
 3.279959 8.202665 11.482715 18
 3.221675 8.093870 11.315639 18
 3.356488 8.323774 11.680349 18
 3.603919 7.676636 11.280663 18
 2.676126 6.621308 9.297537 18
 2.698863 8.066895 10.765847 18
 3.350084 7.183947 10.534134 18
 3.075473 6.590240 9.665816 18
 2.400570 8.122841 10.523494 18
 1.575904 7.604143 9.180117 18
 1.642432 7.990613 9.633111 18
 3.408233 8.183514 11.591836 18
 3.320114 7.573364 10.893582 18
 3.305654 7.465668 10.771421 18
 1.750976 8.080727 9.831765 18
 1.644398 8.157336 9.801798 18
 3.277499 6.994697 10.272299 18
 2.761153 6.941907 9.703171 18
 3.316807 6.787547 10.104455 18
 3.916076 8.502984 12.419128 18
 3.170548 6.517179 9.687821 18
 3.733426 8.174810 11.908322 18
 1.703635 7.898520 9.602226 18
 3.256470 6.430376 9.686937 18
 3.451642 7.720843 11.172585 18
 3.008007 7.820422 10.828520 18
 2.898241 7.744026 10.642364 18
 1.842852 7.773014 9.615941 18
 1.878363 7.667325 9.545765 18
 1.782536 7.690072 9.472690 18
 3.408854 7.624741 11.033703 18
 2.733116 6.724302 9.457526 18
 2.113444 8.183642 10.297173 18
 3.278885 7.344421 10.623410 18
 1.919563 7.564223 9.483867 18
 1 2 3 
 4 5 6 
 7 8 9 
 10 9 8 
 2 11 3 
 12 13 14 
 12 15 13 
 16 17 18 
 19 18 17 
 11 20 3 
 21 22 23 
 24 25 26 
 24 27 28 
 5 29 6 
 30 31 32 
 33 34 35 
 36 37 38 
 26 25 39 
 40 41 20 
 42 43 44 
 45 46 47 
 41 3 20 
 48 35 34 
 49 43 50 
 42 50 43 
 49 51 43 
 32 31 52 
 53 54 55 
 56 57 58 
 13 58 57 
 51 59 60 
 40 20 61 
 62 51 60 
 63 55 54 
 64 38 37 
 65 46 45 
 66 67 68 
 69 43 70 
 71 72 73 
 16 47 46 
 49 74 75 
 76 77 78 
 22 79 23 
 76 80 77 
 81 82 83 
 84 28 27 
 71 85 72 
 24 86 27 
 87 88 89 
 90 91 92 
 93 94 95 
 62 96 70 
 87 97 88 
 90 92 98 
 99 100 101 
 102 101 100 
 93 103 94 
 104 70 96 
 105 106 107 
 107 106 108 
 42 41 4 
 69 44 43 
 36 8 37 
 63 75 55 
 99 55 75 
 109 110 111 
 33 35 112 
 113 68 67 
 114 115 116 
 30 117 31 
 24 28 25 
 118 119 120 
 121 112 35 
 49 75 59 
 122 123 124 
 125 126 29 
 127 117 30 
 109 111 128 
 129 130 97 
 131 97 130 
 76 132 80 
 129 80 132 
 26 133 134 
 40 5 41 
 42 3 41 
 93 135 103 
 113 136 137 
 138 137 136 
 122 139 140 
 6 29 126 
 62 70 51 
 134 133 141 
 125 142 115 
 13 57 14 
 6 50 4 
 42 4 50 
 53 55 143 
 125 115 144 
 93 95 145 
 146 147 97 
 42 44 148 
 129 97 147 
 61 124 123 
 149 1 150 
 151 150 1 
 114 152 115 
 153 28 154 
 99 155 55 
 105 156 106 
 27 157 158 
 121 35 159 
 10 159 35 
 40 61 123 
 151 1 148 
 36 160 159 
 138 101 137 
 161 78 77 
 162 111 110 
 146 97 163 
 21 164 165 
 7 166 37 
 102 120 119 
 43 51 70 
 87 163 97 
 167 168 169 
 122 140 123 
 170 80 171 
 153 25 28 
 28 172 154 
 56 173 57 
 84 27 158 
 141 133 112 
 16 46 17 
 10 35 174 
 99 75 74 
 36 159 8 
 102 175 120 
 19 17 176 
 149 177 89 
 178 89 177 
 65 179 180 
 48 181 35 
 178 182 89 
 183 184 185 
 122 186 139 
 170 187 188 
 189 12 14 
 22 189 14 
 129 147 80 
 12 165 190 
 102 137 101 
 149 191 1 
 102 100 175 
 118 120 192 
 193 194 195 
 196 195 194 
 167 169 197 
 33 112 133 
 30 32 198 
 166 199 37 
 135 200 201 
 102 202 137 
 167 130 203 
 204 205 74 
 99 74 205 
 24 26 134 
 203 130 132 
 206 207 136 
 65 45 208 
 209 208 45 
 210 128 111 
 115 156 116 
 61 20 169 
 11 169 20 
 21 189 22 
 108 211 212 
 162 150 213 
 7 184 166 
 99 205 100 
 170 77 80 
 49 214 74 
 27 86 157 
 215 38 216 
 153 31 25 
 117 25 31 
 215 216 217 
 102 119 202 
 118 218 119 
 1 3 148 
 11 197 169 
 219 200 187 
 204 74 220 
 221 222 223 
 22 224 79 
 221 166 222 
 221 199 166 
 62 60 225 
 226 225 60 
 170 171 227 
 121 159 160 
 118 79 224 
 13 15 228 
 63 59 75 
 229 230 73 
 35 181 174 
 167 231 168 
 113 137 202 
 40 29 5 
 232 207 233 
 234 86 235 
 141 235 86 
 209 179 208 
 151 213 150 
 149 89 88 
 55 155 143 
 234 236 157 
 63 60 59 
 138 155 101 
 234 157 86 
 183 237 83 
 99 101 155 
 238 116 107 
 105 107 116 
 138 143 155 
 49 50 214 
 117 127 239 
 21 23 212 
 108 212 23 
 113 202 68 
 53 143 240 
 232 240 143 
 241 68 202 
 131 88 97 
 89 182 242 
 117 39 25 
 193 85 243 
 229 73 244 
 215 236 245 
 234 245 236 
 241 202 119 
 178 177 110 
 246 225 247 
 12 189 165 
 6 214 50 
 84 172 28 
 87 89 242 
 196 139 186 
 141 86 134 
 24 134 86 
 131 197 2 
 161 248 244 
 249 244 248 
 246 247 82 
 136 207 250 
 21 165 189 
 49 59 51 
 226 247 225 
 26 39 128 
 193 195 85 
 131 2 191 
 204 126 144 
 41 5 4 
 19 176 217 
 114 175 251 
 113 252 136 
 196 194 139 
 238 23 79 
 109 128 39 
 65 180 253 
 138 136 250 
 121 235 112 
 141 112 235 
 206 136 252 
 162 110 177 
 66 68 254 
 241 119 218 
 204 144 152 
 10 8 159 
 131 130 197 
 167 197 130 
 170 227 187 
 219 187 227 
 168 186 124 
 100 251 175 
 71 243 85 
 153 52 31 
 7 37 8 
 234 160 245 
 105 116 156 
 221 255 199 
 149 88 191 
 95 182 198 
 30 198 182 
 16 18 223 
 221 223 18 
 21 212 164 
 162 177 150 
 71 73 230 
 81 83 237 
 109 39 239 
 117 239 39 
 72 256 73 
 131 191 88 
 108 106 211 
 66 254 257 
 221 18 255 
 19 255 18 
 168 124 169 
 219 201 200 
 81 9 258 
 10 258 9 
 246 181 225 
 104 259 260 
 232 250 207 
 48 96 225 
 62 225 96 
 76 261 203 
 262 203 261 
 206 252 67 
 12 190 15 
 69 70 260 
 104 260 70 
 56 92 257 
 91 257 92 
 122 124 186 
 65 253 46 
 7 9 185 
 113 67 252 
 36 245 160 
 48 225 181 
 81 237 9 
 32 145 198 
 26 128 133 
 6 126 220 
 69 260 111 
 210 111 260 
 19 217 216 
 138 250 143 
 232 143 250 
 72 85 263 
 210 259 133 
 33 133 259 
 69 213 44 
 151 44 213 
 238 107 23 
 108 23 107 
 151 148 44 
 103 135 201 
 241 254 68 
 234 235 160 
 204 220 126 
 16 223 47 
 246 82 264 
 81 264 82 
 56 254 173 
 114 251 152 
 115 152 144 
 232 233 240 
 246 264 174 
 10 174 258 
 178 127 182 
 210 260 259 
 19 216 255 
 246 174 181 
 63 54 60 
 226 60 54 
 74 214 220 
 114 265 175 
 178 110 239 
 125 144 126 
 64 216 38 
 129 132 130 
 69 111 213 
 162 213 111 
 85 195 263 
 249 248 188 
 7 185 184 
 146 266 171 
 219 171 266 
 36 38 245 
 215 245 38 
 167 203 231 
 210 133 128 
 64 37 199 
 226 267 247 
 61 169 124 
 95 242 182 
 153 154 52 
 65 208 179 
 120 175 265 
 30 182 127 
 226 54 267 
 53 267 54 
 118 192 79 
 178 239 127 
 6 220 214 
 196 268 195 
 262 195 268 
 64 255 216 
 183 185 237 
 9 237 185 
 56 257 254 
 121 160 235 
 22 14 224 
 57 218 224 
 118 224 218 
 161 244 256 
 73 256 244 
 262 263 195 
 42 148 3 
 104 34 259 
 262 231 203 
 109 239 110 
 238 79 192 
 76 203 132 
 204 152 251 
 114 116 265 
 11 2 197 
 87 242 94 
 95 94 242 
 98 58 228 
 13 228 58 
 238 265 116 
 149 150 177 
 104 96 34 
 48 34 96 
 17 46 253 
 57 224 14 
 64 199 255 
 219 227 171 
 95 198 145 
 56 58 92 
 98 92 58 
 80 147 171 
 146 171 147 
 170 248 77 
 87 94 163 
 103 163 94 
 168 268 186 
 196 186 268 
 241 173 254 
 170 188 248 
 204 251 205 
 76 78 261 
 72 261 78 
 238 192 265 
 1 191 2 
 161 77 248 
 100 205 251 
 57 173 218 
 241 218 173 
 72 78 256 
 115 142 156 
 72 263 261 
 219 266 201 
 103 201 266 
 120 265 192 
 81 258 264 
 174 264 258 
 33 259 34 
 262 268 231 
 262 261 263 
 103 266 163 
 146 163 266 
 161 256 78 
 168 231 268 
