TITLE      =  "2D FE Unstructured grid data" 
VARIABLES = "X", "Y", "U", "Dom" 
ZONE T="P1", F=FEPOINT, N= 261 E= 457  ET=TRIANGLE 
 4.518532 9.039821 13.558375 16
 4.623083 9.182564 13.805664 16
 4.474886 9.182805 13.657714 16
 4.643481 9.022559 13.666057 16
 3.984750 9.683025 13.667793 16
 4.081141 9.703469 13.784630 16
 3.991364 9.808573 13.799947 16
 4.154042 9.791286 13.945339 16
 6.485560 9.116166 15.601734 16
 6.642835 9.095756 15.738588 16
 6.547130 9.231997 15.779132 16
 6.329707 9.377750 15.707459 16
 6.492596 9.347685 15.840285 16
 6.401016 9.473169 15.874195 16
 6.023907 9.579772 15.603679 16
 5.876548 9.535896 15.412446 16
 6.006768 9.473273 15.480048 16
 3.850071 9.739372 13.589456 16
 5.117629 9.121278 14.238921 16
 5.054770 9.226753 14.281532 16
 4.976250 9.108380 14.084645 16
 6.406180 9.252308 15.658481 16
 3.611111 10.000000 13.611111 16
 3.516792 9.854188 13.370985 16
 3.641623 9.892745 13.534381 16
 4.992723 9.561673 14.554407 16
 4.955625 9.444233 14.399876 16
 5.100862 9.495233 14.596103 16
 5.104562 9.353175 14.457747 16
 5.942748 9.666035 15.608784 16
 5.786549 8.751596 14.538153 16
 5.831116 8.859455 14.690575 16
 5.704263 8.908795 14.613059 16
 5.667077 8.750273 14.417355 16
 6.344052 9.144920 15.488970 16
 6.398485 9.020336 15.418816 16
 5.339095 9.054036 14.393141 16
 5.474401 8.974982 14.449389 16
 5.467297 9.110331 14.577641 16
 6.551444 8.971073 15.522521 16
 4.752560 9.091887 13.844465 16
 4.753585 9.217464 13.971064 16
 5.316194 8.940395 14.256598 16
 5.494482 9.751087 15.245570 16
 5.389594 9.632672 15.022271 16
 5.532137 9.655560 15.187690 16
 3.857107 9.455001 13.312135 16
 3.702993 9.434791 13.137812 16
 3.848248 9.314283 13.162564 16
 5.840853 8.968827 14.809691 16
 6.024354 9.014854 15.039209 16
 5.875474 9.096663 14.972138 16
 5.248151 9.549439 14.797602 16
 5.089444 9.635806 14.725252 16
 5.225109 9.663507 14.888626 16
 4.864355 9.365487 14.229855 16
 4.799243 9.464533 14.263787 16
 5.951161 8.879012 14.830173 16
 3.928511 9.222762 13.151301 16
 4.074122 9.245570 13.319716 16
 4.003203 9.356768 13.359992 16
 5.777870 9.287535 15.065404 16
 5.914904 9.298908 15.213818 16
 5.802255 9.410053 15.212312 16
 5.912392 9.415397 15.327787 16
 4.888464 9.546127 14.434600 16
 4.344721 9.139347 13.484099 16
 4.397971 9.039911 13.437911 16
 5.397138 9.790697 15.187840 16
 3.862267 9.882134 13.744407 16
 4.557470 9.579404 14.136894 16
 4.409207 9.553614 13.962836 16
 4.558940 9.462377 14.021337 16
 4.451516 9.419845 13.871376 16
 5.846289 8.591111 14.437402 16
 5.914955 8.744390 14.659353 16
 4.180976 9.319201 13.500200 16
 4.115375 9.448175 13.563578 16
 6.186282 9.712640 15.898923 16
 6.141191 9.618241 15.759439 16
 6.285971 9.581976 15.867952 16
 4.911258 9.657254 14.568524 16
 4.263486 9.510584 13.774091 16
 4.325822 9.399570 13.725415 16
 3.910711 9.593875 13.504600 16
 4.938622 9.210174 14.148815 16
 4.341845 9.257669 13.599545 16
 5.956855 8.621002 14.577859 16
 4.079746 9.898533 13.978277 16
 5.019590 9.767318 14.786912 16
 5.617157 9.754135 15.371292 16
 5.728519 9.697784 15.426300 16
 5.782080 9.823995 15.606082 16
 5.658605 9.881393 15.540003 16
 3.754241 9.597116 13.351372 16
 3.990979 9.487936 13.478936 16
 4.346334 9.701820 14.048167 16
 4.437894 9.836925 14.274825 16
 4.289364 9.844871 14.134239 16
 5.361442 9.235927 14.597374 16
 5.476700 9.225661 14.702372 16
 5.444541 9.386308 14.830854 16
 5.033668 8.974723 14.008407 16
 4.226120 9.176881 13.403028 16
 6.155670 9.054038 15.209710 16
 6.189645 8.950685 15.140328 16
 6.099037 8.875254 14.974295 16
 4.579339 9.775171 14.354527 16
 4.491577 9.682027 14.173617 16
 4.655893 9.654855 14.310748 16
 6.153409 9.522855 15.676269 16
 5.601561 9.025578 14.627141 16
 5.607803 9.159656 14.767462 16
 5.287799 9.750173 15.037971 16
 6.265505 9.053463 15.318961 16
 6.464293 9.583187 16.047485 16
 4.105875 9.132679 13.238587 16
 5.513700 9.525151 15.038854 16
 5.555555 10.000000 15.555555 16
 5.416667 10.000000 15.416667 16
 5.510119 9.866122 15.376243 16
 5.160952 8.874516 14.035489 16
 5.194096 9.013437 14.207543 16
 4.083990 8.923274 13.007306 16
 4.056133 9.035362 13.091533 16
 3.944699 8.990733 12.935470 16
 5.676312 9.257267 14.933581 16
 5.751612 9.154735 14.906344 16
 5.407197 9.504215 14.911425 16
 5.151985 9.824062 14.976054 16
 5.070296 9.897686 14.967990 16
 5.311906 9.455657 14.767580 16
 5.147015 9.724869 14.871890 16
 6.250000 10.000000 16.250000 16
 6.111111 10.000000 16.111111 16
 6.181142 9.858657 16.039808 16
 6.388434 9.671264 16.059710 16
 5.230484 9.305805 14.536297 16
 5.261732 9.161214 14.422954 16
 5.323923 9.351140 14.675073 16
 5.401987 8.855069 14.257063 16
 6.302894 9.706076 16.008984 16
 4.449424 9.311433 13.760881 16
 5.860522 9.198224 15.058753 16
 5.982752 9.153278 15.136032 16
 3.722469 9.726491 13.448975 16
 5.972222 10.000000 15.972221 16
 5.898700 9.885500 15.784201 16
 6.060734 9.888889 15.949633 16
 5.153835 9.233645 14.387492 16
 6.297576 8.948071 15.245649 16
 6.219924 8.820246 15.040177 16
 5.215716 9.421371 14.637103 16
 5.389453 9.894346 15.283799 16
 5.836073 9.651634 15.487710 16
 4.887443 9.018431 13.905886 16
 4.859877 9.151567 14.011459 16
 5.720436 8.623577 14.344016 16
 5.720968 9.035899 14.756873 16
 6.099948 9.147806 15.247754 16
 5.375149 9.146306 14.521457 16
 6.624095 9.338402 15.962508 16
 6.560266 9.486866 16.047131 16
 6.244683 9.457056 15.701745 16
 4.549316 8.906294 13.455637 16
 6.100932 9.407632 15.508565 16
 3.649877 9.659216 13.309111 16
 6.199639 9.344516 15.544166 16
 5.567767 9.303588 14.871366 16
 3.995246 9.121576 13.116852 16
 3.745319 9.851737 13.597066 16
 6.054611 9.284513 15.339125 16
 6.336432 8.839258 15.175686 16
 4.444445 10.000000 14.444445 16
 4.543991 9.895347 14.439343 16
 5.694445 10.000000 15.694445 16
 5.982413 8.487105 14.469525 16
 3.750000 10.000000 13.750000 16
 4.250460 8.816812 13.067315 16
 4.368865 8.786231 13.155131 16
 4.325902 8.925805 13.251734 16
 5.870399 9.754210 15.624615 16
 5.993177 9.780726 15.773905 16
 6.008992 8.708517 14.717515 16
 6.067565 8.626242 14.693812 16
 6.106747 8.749391 14.856138 16
 6.201482 8.650692 14.852181 16
 4.771643 8.955138 13.726802 16
 4.213342 9.427270 13.640628 16
 6.441116 8.889874 15.330990 16
 4.127783 8.810086 12.937917 16
 4.209990 8.931535 13.141564 16
 4.305555 10.000000 14.305555 16
 4.186213 9.892676 14.078892 16
 5.590402 8.831272 14.421682 16
 3.888889 10.000000 13.888889 16
 3.612837 9.785014 13.397867 16
 5.640282 9.603033 15.243319 16
 5.000000 10.000000 15.000000 16
 4.861111 10.000000 14.861111 16
 4.913227 9.878787 14.792018 16
 4.722222 10.000000 14.722221 16
 4.583333 10.000000 14.583333 16
 4.672441 9.880175 14.552626 16
 6.324863 8.732353 15.057216 16
 4.068501 9.585863 13.654387 16
 4.565258 9.317526 13.882799 16
 6.164565 9.233966 15.398524 16
 4.368891 9.918979 14.287870 16
 5.284987 9.862564 15.147554 16
 5.138889 10.000000 15.138889 16
 5.198089 9.915951 15.114044 16
 4.166667 10.000000 14.166667 16
 6.303110 9.885636 16.188745 16
 6.379928 9.784677 16.164614 16
 6.485882 9.713652 16.199539 16
 6.498373 9.849589 16.347971 16
 6.527778 10.000000 16.527779 16
 6.405153 9.898450 16.303610 16
 4.433757 8.899753 13.333540 16
 6.388889 10.000000 16.388889 16
 4.671092 9.415395 14.086496 16
 4.757458 9.336107 14.093573 16
 5.997921 9.375944 15.373866 16
 6.264444 9.787251 16.051702 16
 6.019511 8.795521 14.815034 16
 6.096767 9.787628 15.884395 16
 4.174572 9.047209 13.221816 16
 4.249196 9.746644 13.995856 16
 4.290026 9.051939 13.341999 16
 5.277778 10.000000 15.277779 16
 4.670959 9.291055 13.962033 16
 4.679265 9.535705 14.214980 16
 3.785517 9.194808 12.980361 16
 4.027778 10.000000 14.027779 16
 5.833333 10.000000 15.833333 16
 4.783470 9.602942 14.386421 16
 4.796529 9.717548 14.514086 16
 4.693612 9.760940 14.454556 16
 6.276409 9.249656 15.526064 16
 4.306518 9.603655 13.910192 16
 4.163507 9.540902 13.704423 16
 4.207045 9.648600 13.855660 16
 5.565848 9.414798 14.980652 16
 4.791667 9.921261 14.712934 16
 4.791667 9.816274 14.607951 16
 4.472039 8.800057 13.272136 16
 5.763889 9.924757 15.688647 16
 5.727032 9.496281 15.223310 16
 5.626346 9.486788 15.113132 16
 5.761691 9.596926 15.358623 16
 5.676509 9.380824 15.057335 16
 4.961455 9.310482 14.271953 16
 6.056384 9.693966 15.750357 16
 4.886454 9.767436 14.653899 16
 3.862135 9.102349 12.964520 16
 5.581451 8.925284 14.506744 16
 3.962588 9.923513 13.886102 16
 6.217739 9.146187 15.363921 16
 4.850798 9.263067 14.113877 16
 5.508369 8.877736 14.386116 16
 1 2 3 
 4 2 1 
 5 6 7 
 7 6 8 
 9 10 11 
 12 13 14 
 15 16 17 
 18 5 7 
 19 20 21 
 12 22 13 
 23 24 25 
 26 27 28 
 29 28 27 
 15 30 16 
 31 32 33 
 34 31 33 
 35 36 9 
 37 38 39 
 40 10 9 
 2 41 42 
 4 41 2 
 37 43 38 
 44 45 46 
 47 48 49 
 50 51 52 
 28 53 54 
 53 55 54 
 56 27 57 
 50 58 51 
 35 9 22 
 59 60 61 
 62 63 64 
 65 64 63 
 57 27 66 
 67 68 3 
 59 61 49 
 47 49 61 
 69 45 44 
 18 7 70 
 65 17 16 
 71 72 73 
 74 73 72 
 68 1 3 
 31 75 76 
 77 78 61 
 79 80 81 
 26 54 82 
 83 84 72 
 18 85 5 
 74 72 84 
 86 21 20 
 77 87 84 
 75 88 76 
 8 89 7 
 90 82 54 
 91 92 93 
 91 93 94 
 47 85 95 
 47 61 96 
 97 98 99 
 100 101 102 
 18 95 85 
 19 21 103 
 77 104 87 
 105 51 106 
 77 61 60 
 107 106 51 
 108 109 110 
 71 110 109 
 40 9 36 
 81 80 111 
 112 113 39 
 26 28 54 
 69 114 45 
 55 45 114 
 77 60 104 
 35 115 36 
 116 81 14 
 117 104 60 
 118 46 45 
 119 120 121 
 122 43 123 
 97 109 98 
 108 98 109 
 124 125 126 
 62 127 128 
 45 53 129 
 90 130 131 
 132 129 53 
 90 133 130 
 134 135 136 
 116 137 81 
 100 138 139 
 55 53 45 
 100 102 140 
 141 38 43 
 3 87 67 
 47 95 48 
 79 81 142 
 3 143 87 
 62 128 144 
 145 63 144 
 18 146 95 
 147 148 149 
 29 150 138 
 145 52 51 
 9 11 22 
 118 45 129 
 151 106 152 
 29 153 28 
 120 154 121 
 119 121 94 
 155 16 30 
 156 21 157 
 31 158 75 
 128 113 159 
 112 159 113 
 156 157 41 
 107 152 106 
 105 160 51 
 37 39 161 
 13 162 163 
 81 164 14 
 107 51 58 
 4 1 165 
 166 164 111 
 50 52 159 
 95 146 167 
 166 168 164 
 128 159 52 
 169 102 101 
 59 170 60 
 18 70 171 
 145 51 160 
 145 172 63 
 151 152 173 
 29 20 150 
 174 98 175 
 176 119 94 
 177 88 75 
 29 138 153 
 178 171 70 
 12 14 164 
 179 180 181 
 93 92 182 
 31 34 158 
 183 149 148 
 13 163 14 
 184 185 186 
 187 186 185 
 145 144 52 
 112 39 38 
 4 188 41 
 39 113 101 
 184 76 88 
 37 139 123 
 19 123 139 
 155 182 92 
 77 84 189 
 47 96 85 
 151 190 36 
 124 191 192 
 179 192 191 
 193 194 99 
 195 34 33 
 196 178 70 
 107 186 152 
 187 152 186 
 151 36 115 
 197 25 24 
 118 198 46 
 199 200 201 
 145 160 172 
 202 203 204 
 108 175 98 
 187 205 152 
 206 5 85 
 130 133 114 
 138 150 139 
 26 66 27 
 19 103 123 
 122 123 103 
 3 2 207 
 208 168 172 
 166 172 168 
 206 85 96 
 174 209 98 
 130 114 210 
 100 140 138 
 211 131 212 
 13 22 11 
 193 213 194 
 134 136 214 
 215 216 217 
 218 219 217 
 128 127 113 
 178 25 171 
 220 181 180 
 156 41 188 
 97 72 109 
 71 109 72 
 218 221 219 
 151 173 190 
 222 223 57 
 56 57 223 
 65 63 224 
 135 149 136 
 222 73 207 
 74 207 73 
 79 225 136 
 211 199 131 
 90 54 133 
 15 17 111 
 166 111 17 
 107 58 226 
 79 136 227 
 124 192 228 
 97 99 229 
 203 174 175 
 169 101 113 
 87 104 67 
 230 67 104 
 91 94 121 
 124 228 125 
 62 144 63 
 206 96 78 
 61 78 96 
 50 32 58 
 87 143 84 
 74 84 143 
 91 46 198 
 120 231 154 
 231 210 154 
 178 23 25 
 222 207 232 
 117 228 104 
 230 104 228 
 3 207 143 
 220 1 68 
 71 73 233 
 90 131 201 
 221 134 214 
 130 212 131 
 59 49 234 
 213 235 89 
 40 36 190 
 147 236 148 
 135 147 149 
 50 33 32 
 179 181 192 
 199 201 131 
 156 103 21 
 91 198 92 
 237 238 110 
 110 238 239 
 222 233 73 
 208 172 160 
 12 240 22 
 203 175 204 
 83 72 241 
 74 143 207 
 220 165 1 
 117 60 170 
 8 99 194 
 98 209 99 
 193 99 209 
 108 204 175 
 132 153 140 
 138 140 153 
 206 242 243 
 81 137 142 
 8 229 99 
 206 243 6 
 69 121 154 
 132 140 102 
 97 241 72 
 169 244 102 
 118 102 244 
 55 114 133 
 200 245 201 
 246 201 245 
 132 102 129 
 118 129 102 
 37 123 43 
 246 245 204 
 202 204 245 
 83 243 242 
 220 247 165 
 8 6 243 
 12 168 240 
 97 243 241 
 83 241 243 
 197 171 25 
 8 243 229 
 97 229 243 
 183 182 30 
 197 146 171 
 18 171 146 
 236 248 148 
 93 148 248 
 50 159 33 
 207 2 232 
 215 217 219 
 249 198 250 
 118 250 198 
 249 251 198 
 71 233 110 
 42 41 157 
 116 14 163 
 220 68 181 
 222 232 223 
 213 89 194 
 62 64 252 
 249 252 64 
 246 204 239 
 108 239 204 
 206 78 242 
 77 189 78 
 86 20 253 
 29 253 20 
 35 22 240 
 169 113 127 
 183 30 254 
 177 185 88 
 246 255 201 
 90 201 255 
 91 121 44 
 183 148 182 
 93 182 148 
 81 111 164 
 237 233 57 
 126 170 256 
 221 214 219 
 100 161 101 
 39 101 161 
 69 44 121 
 69 210 114 
 13 11 162 
 208 240 168 
 112 33 159 
 222 57 233 
 174 193 209 
 231 211 212 
 15 111 80 
 231 212 210 
 230 192 181 
 69 154 210 
 195 33 257 
 112 257 33 
 86 157 21 
 59 256 170 
 237 110 233 
 55 133 54 
 128 52 144 
 215 137 216 
 200 202 245 
 236 176 248 
 58 76 226 
 184 226 76 
 130 210 212 
 235 196 258 
 12 164 168 
 208 259 240 
 56 223 260 
 42 260 223 
 249 64 16 
 65 16 64 
 169 127 252 
 230 228 192 
 79 142 225 
 112 38 257 
 230 68 67 
 132 53 153 
 28 153 53 
 62 252 127 
 91 44 46 
 237 82 238 
 206 6 5 
 108 110 239 
 152 205 173 
 86 253 260 
 56 260 253 
 249 250 252 
 7 89 258 
 235 258 89 
 237 57 66 
 176 94 248 
 93 248 94 
 184 88 185 
 116 216 137 
 35 240 259 
 83 242 189 
 78 189 242 
 197 167 146 
 169 252 244 
 198 251 92 
 117 125 228 
 215 219 214 
 59 234 256 
 56 253 27 
 29 27 253 
 155 30 182 
 215 142 137 
 141 261 38 
 105 106 115 
 151 115 106 
 90 255 82 
 215 214 225 
 107 226 186 
 8 194 89 
 83 189 84 
 237 66 82 
 215 225 142 
 19 139 150 
 155 92 251 
 26 82 66 
 79 227 254 
 42 157 260 
 136 225 214 
 184 186 226 
 19 150 20 
 37 161 139 
 100 139 161 
 42 232 2 
 126 125 170 
 58 32 76 
 31 76 32 
 15 254 30 
 82 255 238 
 155 251 16 
 117 170 125 
 7 258 70 
 196 70 258 
 136 149 227 
 183 227 149 
 63 172 224 
 166 224 172 
 183 254 227 
 42 223 232 
 220 180 247 
 249 16 251 
 105 259 160 
 252 250 244 
 38 261 257 
 230 181 68 
 246 239 238 
 86 260 157 
 105 115 259 
 208 160 259 
 15 80 254 
 79 254 80 
 35 259 115 
 65 224 17 
 166 17 224 
 118 244 250 
 195 257 261 
 246 238 255 
