TITLE      =  "2D FE Unstructured grid data" 
VARIABLES = "X", "Y", "U", "Dom" 
ZONE T="P1", F=FEPOINT, N= 544 E= 1001  ET=TRIANGLE 
 5.257092 4.951127 10.208221 5
 5.213462 4.793371 10.006832 5
 5.330429 4.858052 10.188488 5
 5.151765 4.907310 10.059087 5
 4.623034 6.302894 10.925982 5
 4.483908 6.449684 10.933658 5
 4.452465 6.301439 10.753955 5
 3.757726 4.591319 8.349066 5
 3.841367 4.732700 8.574097 5
 3.696275 4.709718 8.406018 5
 4.723909 5.068506 9.792425 5
 4.847394 4.979242 9.826645 5
 4.890870 5.132880 10.023766 5
 5.017903 4.996035 10.013945 5
 3.743002 3.263467 7.006436 5
 3.813725 3.367210 7.180904 5
 3.647573 3.329685 6.977231 5
 2.746652 3.966335 6.712999 5
 2.786584 3.867271 6.653862 5
 2.905543 3.942552 6.848104 5
 4.970822 4.493345 9.464161 5
 5.151458 4.531467 9.682914 5
 5.054547 4.627533 9.682076 5
 3.035245 2.932065 5.967280 5
 2.925088 2.947470 5.872531 5
 2.902174 2.798072 5.700221 5
 3.940711 5.922763 9.863537 5
 3.775733 5.907977 9.683778 5
 3.906242 5.805687 9.711993 5
 4.596781 5.505511 10.102322 5
 4.767055 5.487215 10.254299 5
 4.696230 5.614021 10.310284 5
 4.550435 6.184982 10.735474 5
 5.056756 4.851300 9.908054 5
 5.088861 4.732314 9.821177 5
 4.243496 4.933706 9.177229 5
 4.234445 4.810615 9.045078 5
 4.356071 4.907642 9.263737 5
 4.682370 6.145089 10.827504 5
 4.738197 6.044947 10.783183 5
 4.770121 6.206210 10.976379 5
 3.458855 4.122495 7.581362 5
 3.606796 4.177765 7.784568 5
 3.483129 4.255417 7.738560 5
 3.598774 4.337320 7.936109 5
 3.989424 5.286408 9.275879 5
 4.150170 5.339636 9.489849 5
 4.049580 5.430021 9.479656 5
 4.102524 5.218718 9.321280 5
 4.499614 3.585040 8.084637 5
 4.366788 3.584994 7.951759 5
 4.446567 3.471965 7.918502 5
 2.741634 3.009562 5.751171 5
 2.625647 3.073562 5.699188 5
 2.667062 2.893990 5.561022 5
 4.334121 3.451462 7.785559 5
 4.390341 4.809024 9.199388 5
 3.894337 4.620393 8.514748 5
 5.103247 4.421588 9.524834 5
 2.802897 4.053679 6.856593 5
 2.972581 3.152143 6.124701 5
 3.051320 3.237915 6.289212 5
 2.891829 3.294670 6.186480 5
 2.913982 3.504823 6.418792 5
 3.083112 3.536109 6.619206 5
 2.906021 3.610849 6.516863 5
 2.991431 3.677116 6.668541 5
 3.083775 2.826700 5.910441 5
 2.770490 3.248269 6.018739 5
 2.759542 3.399570 6.159101 5
 4.741090 4.800401 9.541501 5
 4.777213 4.665328 9.442540 5
 4.865252 4.762175 9.627431 5
 3.663119 3.911580 7.574696 5
 3.826711 3.869400 7.696102 5
 3.770090 3.992099 7.762187 5
 4.639359 4.733263 9.372632 5
 3.368343 3.309905 6.678223 5
 3.518182 3.389859 6.908017 5
 3.370279 3.428877 6.799136 5
 3.406950 5.209372 8.616383 5
 3.306184 5.104462 8.410703 5
 3.421729 5.051481 8.473262 5
 4.634031 5.393753 10.027808 5
 3.451608 3.228068 6.679649 5
 2.857611 3.172049 6.029636 5
 3.213394 5.191581 8.405038 5
 3.298322 5.287309 8.585699 5
 3.683997 3.444801 7.128774 5
 5.214097 3.331745 8.545809 5
 5.065293 3.368719 8.433978 5
 5.075511 3.255838 8.331306 5
 3.965637 4.859202 8.824864 5
 4.098414 4.774844 8.873281 5
 4.116724 4.919291 9.036041 5
 3.758397 3.758531 7.516918 5
 5.345166 4.081958 9.427113 5
 5.223313 4.165204 9.388501 5
 5.225334 4.010153 9.235470 5
 5.087319 4.059354 9.146648 5
 5.003970 3.950645 8.954595 5
 4.940084 4.025068 8.965135 5
 4.666161 4.606328 9.272497 5
 3.629506 5.674319 9.303896 5
 3.675593 5.526574 9.202231 5
 3.741936 5.683527 9.425526 5
 3.789196 5.580353 9.369614 5
 5.510816 4.964171 10.474980 5
 5.458508 4.842330 10.300838 5
 5.613523 4.876764 10.490274 5
 2.748864 4.504391 7.253293 5
 2.632258 4.578031 7.210331 5
 2.677975 4.403424 7.081435 5
 3.486349 2.979638 6.465955 5
 3.405792 3.076089 6.481851 5
 3.373044 2.967898 6.340908 5
 3.287072 3.032096 6.319138 5
 2.868498 3.815696 6.684197 5
 3.945071 5.537083 9.482208 5
 3.889776 5.689489 9.579329 5
 4.979978 4.129759 9.109717 5
 4.403582 5.393932 9.797549 5
 4.367148 5.274304 9.641484 5
 4.506149 5.309174 9.815353 5
 4.519849 5.664965 10.184849 5
 4.478020 5.792209 10.270276 5
 4.405655 5.647001 10.052704 5
 4.358768 5.740221 10.099032 5
 3.036210 5.285058 8.321340 5
 3.164217 5.324009 8.488291 5
 3.073294 5.462520 8.535891 5
 3.560399 3.252693 6.813063 5
 3.544816 3.119268 6.664052 5
 3.285072 4.974949 8.260069 5
 5.118882 3.475273 8.594121 5
 4.725826 4.925068 9.650901 5
 4.694458 3.842130 8.536572 5
 4.748693 3.756030 8.504703 5
 4.857194 3.886184 8.743355 5
 4.935095 3.324694 8.259759 5
 4.854363 3.730528 8.584869 5
 3.420814 4.912316 8.333170 5
 3.522639 5.143044 8.665735 5
 3.560547 5.764571 9.325186 5
 3.519192 5.612889 9.132152 5
 3.652420 3.199282 6.851668 5
 5.155808 4.309731 9.465529 5
 5.021509 4.346021 9.367522 5
 5.072066 4.195681 9.267732 5
 3.803937 5.090874 8.894851 5
 3.644509 5.074558 8.719117 5
 3.738236 4.948034 8.686310 5
 3.390509 2.852428 6.242899 5
 3.549135 2.892482 6.441579 5
 3.672231 4.470662 8.142914 5
 3.522887 4.489528 8.012443 5
 3.686920 3.654907 7.341812 5
 3.811975 3.609040 7.420995 5
 3.898018 3.736639 7.634639 5
 3.158106 4.022573 7.180687 5
 3.266143 3.958967 7.225114 5
 3.291701 4.098896 7.390607 5
 2.658534 3.302438 5.960958 5
 3.669930 4.054786 7.724719 5
 3.553286 4.052860 7.606152 5
 5.566566 4.755843 10.322398 5
 3.754881 5.387010 9.141947 5
 3.830001 5.262227 9.092281 5
 3.897923 5.397285 9.295251 5
 4.633508 5.739126 10.372680 5
 4.783075 5.736701 10.519803 5
 2.896825 4.090075 6.986916 5
 3.989231 4.708849 8.698106 5
 4.011201 4.580757 8.591979 5
 3.189224 4.781227 7.970494 5
 3.283570 4.849749 8.133364 5
 3.133970 4.921449 8.055468 5
 4.800302 5.598439 10.398774 5
 5.014447 3.851910 8.866331 5
 3.026370 3.348619 6.374968 5
 3.818583 5.480961 9.299602 5
 4.097756 4.656532 8.754305 5
 3.114750 3.650118 6.764858 5
 4.559124 5.076210 9.635354 5
 4.616161 4.974397 9.590570 5
 3.049341 4.632110 7.681489 5
 2.900057 4.632640 7.532735 5
 2.965014 4.544440 7.509488 5
 2.946177 4.744067 7.690290 5
 4.886099 5.298410 10.184529 5
 4.771914 5.224289 9.996218 5
 4.928779 4.868985 9.797764 5
 3.760977 4.141288 7.902271 5
 3.865321 4.286638 8.151972 5
 3.730860 4.287013 8.017884 5
 4.101400 3.641224 7.742602 5
 4.029352 3.743405 7.772743 5
 3.953509 3.619774 7.573261 5
 2.609238 3.517793 6.127026 5
 2.523007 3.648184 6.171191 5
 2.486100 3.502004 5.988101 5
 4.980274 3.545190 8.525428 5
 4.992145 3.435794 8.427907 5
 3.519774 5.432137 8.951976 5
 5.076163 3.588451 8.664578 5
 3.510444 3.945162 7.455609 5
 4.667202 3.462225 8.129401 5
 4.605954 3.329224 7.935148 5
 4.769167 3.354741 8.123878 5
 4.384297 4.111179 8.495471 5
 4.321894 4.212945 8.534837 5
 4.274329 4.054249 8.328574 5
 4.440813 5.201459 9.642296 5
 3.306064 4.596165 7.902261 5
 3.447032 4.666956 8.114017 5
 3.290806 4.717952 8.008790 5
 3.381533 4.790601 8.172176 5
 3.204232 3.703293 6.907517 5
 3.226218 3.840267 7.066481 5
 3.088363 3.763826 6.852185 5
 4.882155 5.653976 10.536160 5
 5.004355 5.621849 10.626222 5
 4.936058 5.781611 10.717693 5
 3.890006 4.160296 8.050309 5
 4.208792 4.172944 8.381740 5
 4.168963 6.230496 10.399529 5
 4.156271 6.085233 10.241575 5
 4.261810 6.154975 10.416849 5
 3.482398 4.827260 8.309691 5
 5.162831 5.003466 10.166307 5
 4.650256 5.168060 9.818337 5
 3.196591 2.947488 6.144048 5
 3.565191 4.752255 8.317479 5
 3.405697 4.008058 7.413758 5
 3.134465 3.448697 6.583143 5
 3.206612 3.570246 6.776845 5
 2.818202 2.930408 5.748585 5
 3.158952 4.149160 7.308126 5
 3.355225 4.213881 7.569122 5
 5.253133 3.592055 8.845161 5
 5.149763 3.675928 8.825667 5
 5.427352 5.250156 10.677506 5
 5.284202 5.287165 10.571380 5
 5.322007 5.177429 10.499443 5
 4.095340 3.866561 7.961889 5
 4.196617 3.755592 7.952194 5
 3.485222 4.369045 7.854288 5
 4.417337 6.191537 10.608926 5
 3.233610 2.820423 6.053998 5
 4.946111 4.241687 9.187785 5
 4.420889 5.943147 10.364091 5
 4.356926 6.065837 10.422825 5
 4.294610 5.933435 10.228106 5
 2.940133 4.188791 7.128943 5
 2.794811 4.175054 6.969882 5
 2.859029 4.264322 7.123376 5
 4.228453 5.249140 9.477625 5
 4.223283 5.113678 9.336995 5
 4.090350 5.075854 9.166241 5
 4.772575 5.352796 10.125400 5
 4.897430 5.420352 10.317795 5
 3.313319 3.773828 7.087141 5
 4.607901 5.981206 10.589150 5
 4.605456 6.088699 10.694202 5
 3.105634 3.030736 6.136343 5
 3.334796 3.669358 7.004143 5
 3.130578 3.901307 7.031890 5
 3.253668 3.446566 6.700216 5
 3.038144 2.689117 5.727231 5
 4.531424 4.616923 9.148353 5
 4.485788 4.489397 8.975187 5
 4.613379 4.491912 9.105288 5
 3.004563 3.449836 6.454381 5
 2.875806 3.413953 6.289742 5
 3.189896 5.445690 8.635656 5
 3.613718 4.608540 8.222281 5
 4.293717 4.469721 8.763448 5
 4.224833 4.577634 8.802481 5
 4.176639 4.432660 8.609311 5
 2.653286 3.746954 6.400242 5
 2.556775 3.810593 6.367373 5
 4.030450 3.517035 7.547461 5
 2.535318 3.365102 5.900409 5
 2.772818 3.517823 6.290632 5
 4.009738 4.968693 8.978458 5
 4.267220 3.534466 7.801661 5
 4.932013 4.647442 9.579454 5
 4.759320 3.939040 8.698335 5
 3.616906 5.228161 8.845117 5
 3.632662 5.360464 8.993187 5
 3.724198 5.187801 8.912044 5
 3.259622 3.307623 6.567220 5
 4.892799 3.621217 8.513984 5
 4.877970 3.460608 8.338544 5
 4.805853 3.550478 8.356305 5
 5.004020 5.485520 10.489557 5
 5.105770 5.420438 10.526216 5
 5.128078 5.529068 10.657162 5
 3.308843 3.184427 6.493243 5
 4.113810 4.543948 8.657767 5
 3.798507 5.780425 9.578996 5
 5.020781 5.135246 10.156042 5
 4.359907 3.812293 8.172187 5
 4.230332 3.864177 8.094499 5
 2.969521 4.300983 7.270529 5
 2.823711 4.393661 7.217402 5
 2.964751 3.791596 6.756349 5
 2.956564 4.427278 7.383872 5
 4.979389 5.225710 10.205109 5
 3.749798 4.799947 8.549774 5
 4.314122 4.746890 9.061028 5
 3.652773 5.830866 9.483703 5
 4.303561 6.275100 10.578726 5
 4.349597 5.130523 9.480158 5
 3.033436 3.865733 6.899173 5
 3.661256 3.088212 6.749434 5
 4.835374 3.996528 8.831887 5
 4.329508 3.709597 8.039088 5
 4.153842 4.086401 8.240247 5
 4.099603 4.201324 8.300932 5
 3.998106 4.081865 8.079971 5
 3.977496 4.237344 8.214844 5
 4.385042 4.553868 8.938922 5
 3.478721 3.539876 7.018578 5
 5.000618 3.700143 8.700740 5
 5.123907 3.795362 8.919241 5
 3.102245 5.190632 8.292945 5
 3.193439 5.063548 8.257049 5
 3.065319 4.494302 7.559654 5
 3.173604 4.555604 7.729241 5
 4.555039 3.463412 8.018428 5
 4.514215 4.754536 9.268758 5
 3.384558 3.882700 7.267255 5
 2.798532 3.650784 6.449315 5
 4.931655 3.792191 8.723818 5
 3.554677 4.894423 8.449137 5
 3.533933 5.005734 8.539709 5
 5.126162 5.097726 10.223896 5
 4.504116 4.885536 9.389669 5
 3.077426 5.065394 8.142878 5
 2.976465 4.996763 7.973289 5
 2.980428 4.866797 7.847279 5
 5.353764 4.366374 9.720129 5
 5.331782 4.453492 9.785263 5
 5.237947 4.414595 9.652536 5
 3.026547 4.078624 7.105186 5
 3.601517 3.546279 7.147776 5
 4.186042 5.012258 9.198327 5
 5.261233 5.065129 10.326368 5
 5.372214 4.965160 10.337371 5
 5.429159 5.090853 10.520013 5
 5.229077 3.752170 8.981218 5
 3.295975 2.916973 6.212912 5
 2.571431 3.205691 5.777102 5
 5.292158 4.288077 9.580231 5
 4.593714 5.602470 10.196221 5
 4.246490 6.045128 10.291681 5
 3.784562 3.477700 7.262235 5
 3.947360 5.059838 9.007231 5
 3.918432 5.171042 9.089515 5
 2.723489 4.742270 7.465811 5
 2.776603 4.618862 7.395507 5
 2.677222 3.628210 6.305430 5
 4.982566 4.748600 9.731166 5
 3.565874 3.649191 7.215053 5
 3.447007 3.652848 7.099843 5
 4.449084 4.999966 9.449072 5
 2.849089 4.819247 7.668388 5
 4.910671 4.378747 9.289408 5
 2.862094 4.510117 7.372245 5
 4.701678 5.877624 10.579336 5
 4.518124 4.381610 8.899726 5
 4.498084 6.058089 10.556231 5
 3.519101 3.834054 7.353151 5
 2.839083 4.711417 7.550547 5
 4.426431 4.309072 8.735502 5
 4.467340 4.192899 8.660236 5
 4.499074 3.366894 7.865941 5
 3.234506 4.368670 7.603198 5
 3.086691 4.360928 7.447642 5
 3.178654 4.262046 7.440717 5
 4.292946 3.352727 7.645644 5
 4.196562 3.299059 7.495589 5
 4.326914 3.215930 7.542811 5
 4.328856 4.652014 8.980885 5
 4.216404 4.703088 8.919508 5
 3.160703 4.445453 7.606184 5
 3.251264 5.385256 8.636585 5
 3.381427 5.371530 8.753015 5
 3.278691 5.499142 8.777907 5
 3.398920 4.532316 7.931266 5
 3.077367 4.789127 7.866540 5
 3.409681 5.515831 8.925580 5
 3.649375 4.834450 8.483859 5
 5.461146 4.733736 10.194873 5
 4.421032 4.682944 9.103989 5
 3.180450 3.215299 6.395724 5
 3.155227 3.341714 6.496918 5
 3.166606 4.677914 7.844559 5
 4.836103 4.272596 9.108685 5
 2.848079 5.061532 7.909674 5
 2.986669 5.144243 8.130975 5
 2.681637 4.256405 6.938068 5
 2.670653 4.094378 6.765051 5
 3.204031 3.102371 6.306371 5
 2.768164 4.308964 7.077156 5
 3.622774 3.758597 7.381363 5
 4.350440 5.843766 10.194256 5
 4.310056 3.929770 8.239818 5
 2.667090 3.420545 6.087625 5
 4.522327 3.976162 8.498474 5
 4.433736 3.897782 8.331499 5
 4.591756 3.867225 8.458964 5
 2.883681 5.235128 8.118875 5
 4.274296 5.361598 9.635936 5
 4.867213 4.558381 9.425589 5
 3.905245 3.963724 7.868964 5
 3.856679 4.061239 7.917920 5
 3.698494 4.373678 8.072192 5
 3.808077 4.401528 8.209620 5
 3.818960 4.513000 8.331980 5
 4.232365 3.643092 7.875439 5
 3.875270 4.965647 8.840952 5
 3.892028 3.497513 7.389516 5
 3.979446 3.402946 7.382364 5
 4.314944 5.007007 9.321979 5
 2.765425 3.758421 6.523848 5
 2.754933 3.122748 5.877658 5
 5.489552 4.544328 10.033869 5
 5.373848 4.542871 9.916708 5
 5.448073 4.418504 9.866565 5
 4.818504 4.870011 9.688519 5
 4.203794 5.453638 9.657478 5
 4.104136 5.545857 9.650044 5
 2.676207 3.190542 5.866728 5
 3.296501 4.470175 7.766704 5
 4.620383 4.846562 9.466956 5
 4.013083 3.953603 7.966679 5
 3.510435 5.292639 8.803135 5
 4.650166 5.279795 9.929986 5
 4.633486 4.354214 8.987694 5
 4.189739 3.956672 8.146402 5
 4.158294 3.530331 7.688599 5
 4.106912 3.411744 7.518629 5
 4.212558 5.854231 10.066847 5
 4.248597 5.748077 9.996730 5
 4.038553 5.658641 9.697249 5
 4.464545 5.116072 9.580645 5
 3.624146 4.951439 8.575631 5
 4.042265 4.458383 8.500668 5
 3.921630 4.489553 8.411199 5
 3.952791 4.375410 8.328216 5
 4.491944 4.086090 8.578028 5
 4.394097 4.005012 8.399100 5
 4.097208 3.997294 8.094499 5
 3.050842 3.962158 7.013007 5
 5.089581 5.223879 10.313467 5
 5.208089 5.193843 10.401937 5
 5.156132 5.318573 10.474711 5
 4.517680 5.427602 9.945319 5
 4.508618 3.793003 8.301609 5
 5.353297 4.189147 9.542429 5
 3.062189 4.222247 7.284455 5
 4.598559 5.847157 10.445763 5
 4.526024 5.917530 10.443598 5
 4.460289 5.534797 9.995130 5
 4.314150 5.465457 9.779646 5
 4.337113 5.571017 9.908174 5
 3.145880 2.740204 5.886052 5
 4.396381 3.339750 7.736099 5
 4.021440 5.155866 9.177346 5
 2.881194 4.935314 7.816567 5
 5.175752 4.646007 9.821752 5
 3.713630 5.288313 9.001994 5
 3.834062 4.861106 8.695201 5
 4.008707 5.781964 9.790724 5
 2.998208 3.041924 6.040104 5
 3.083927 3.128006 6.211907 5
 5.018191 5.345380 10.363586 5
 5.627614 4.668246 10.295845 5
 5.611839 4.572730 10.184557 5
 5.721786 4.621486 10.343259 5
 4.844534 4.120267 8.964791 5
 4.067450 4.328677 8.396145 5
 4.746282 4.023415 8.769685 5
 4.615785 4.052131 8.667903 5
 4.648560 3.952608 8.601153 5
 4.770158 3.460246 8.230381 5
 4.695701 4.120321 8.816006 5
 4.473174 3.256110 7.729251 5
 4.751874 4.209885 8.961740 5
 4.546166 5.191502 9.737696 5
 3.714086 3.543481 7.257545 5
 4.296638 4.351752 8.648392 5
 2.675906 3.858227 6.534143 5
 5.298054 4.647369 9.945417 5
 3.182012 5.557523 8.739607 5
 4.169448 5.653909 9.823408 5
 4.189581 4.291617 8.481202 5
 3.252874 4.200253 7.453145 5
 4.747875 4.543130 9.291001 5
 5.359335 4.752727 10.112061 5
 3.338020 5.587583 8.925674 5
 3.243331 5.637528 8.880941 5
 4.439803 3.695257 8.135039 5
 5.711236 4.758887 10.470108 5
 5.231665 3.874136 9.105783 5
 5.120804 3.930712 9.051492 5
 3.351694 3.548263 6.899941 5
 3.371267 4.340522 7.711807 5
 3.422117 4.438757 7.860898 5
 4.838349 4.462823 9.301164 5
 3.965398 3.853828 7.819218 5
 4.223198 3.429797 7.652970 5
 2.872922 3.056670 5.929569 5
 4.894711 5.543684 10.438420 5
 4.085330 5.881739 9.967128 5
 4.059628 6.004992 10.064685 5
 4.123805 5.761951 9.885812 5
 4.555874 4.268365 8.824231 5
 3.279840 4.277283 7.557144 5
 5.263251 4.540002 9.803248 5
 3.416794 3.773523 7.190312 5
 4.723359 4.428094 9.151448 5
 4.396034 4.419438 8.815477 5
 4.810153 4.375240 9.185386 5
 3.516917 3.732760 7.249667 5
 4.228028 5.563161 9.791236 5
 4.168519 5.965186 10.133760 5
 4.629376 3.767317 8.396672 5
 4.562174 3.680274 8.242430 5
 5.430542 4.274333 9.704865 5
 4.284595 5.652598 9.937240 5
 4.655750 4.229373 8.885113 5
 4.732930 4.312341 9.045258 5
 4.589895 4.154187 8.744070 5
 2.883663 3.715283 6.598943 5
 4.608068 3.572247 8.180292 5
 4.670556 3.665241 8.335778 5
 5.413896 4.651574 10.065477 5
 4.779534 3.649229 8.428736 5
 5.527368 4.655096 10.182445 5
 4.710295 3.562259 8.272531 5
 3.609040 2.999769 6.608775 5
 1 2 3 
 4 2 1 
 5 6 7 
 8 9 10 
 11 12 13 
 14 13 12 
 15 16 17 
 18 19 20 
 21 22 23 
 24 25 26 
 27 28 29 
 30 31 32 
 5 7 33 
 2 34 35 
 36 37 38 
 39 40 41 
 42 43 44 
 45 44 43 
 46 47 48 
 49 47 46 
 50 51 52 
 53 54 55 
 52 51 56 
 38 37 57 
 58 9 8 
 21 59 22 
 4 34 2 
 18 20 60 
 61 62 63 
 64 65 66 
 67 66 65 
 68 24 26 
 69 63 70 
 71 72 73 
 74 75 76 
 77 72 71 
 78 79 80 
 81 82 83 
 30 84 31 
 78 85 79 
 61 63 86 
 87 82 88 
 17 16 89 
 90 91 92 
 93 94 95 
 74 96 75 
 88 82 81 
 97 98 99 
 100 99 98 
 101 100 102 
 77 103 72 
 104 105 106 
 107 106 105 
 108 109 110 
 111 112 113 
 114 115 116 
 117 116 115 
 118 20 19 
 119 120 107 
 102 100 121 
 122 123 124 
 125 126 127 
 126 128 127 
 129 130 131 
 132 85 133 
 134 83 82 
 90 135 91 
 11 136 12 
 137 138 139 
 115 133 85 
 140 92 91 
 141 139 138 
 134 142 83 
 81 83 143 
 104 144 145 
 132 133 146 
 147 148 149 
 150 151 152 
 114 153 154 
 45 155 156 
 157 158 96 
 159 96 158 
 160 161 162 
 69 70 163 
 164 165 74 
 110 109 166 
 167 168 169 
 46 169 168 
 170 32 171 
 172 60 20 
 93 173 94 
 58 174 173 
 175 176 177 
 32 178 171 
 179 101 139 
 180 63 62 
 119 107 181 
 182 173 174 
 67 65 183 
 11 184 185 
 186 187 188 
 170 126 125 
 186 189 187 
 190 191 13 
 11 13 191 
 14 12 192 
 193 194 195 
 196 197 198 
 102 139 101 
 199 200 201 
 202 203 135 
 104 145 105 
 204 105 145 
 202 135 205 
 165 206 74 
 207 208 209 
 210 211 212 
 213 124 123 
 214 215 216 
 217 216 215 
 218 219 220 
 134 177 176 
 221 222 223 
 193 224 194 
 211 225 212 
 226 227 228 
 217 215 229 
 14 4 230 
 11 231 184 
 147 149 98 
 68 232 24 
 215 233 229 
 42 162 234 
 11 185 136 
 65 235 236 
 45 43 195 
 193 195 43 
 25 237 26 
 114 133 115 
 65 236 183 
 160 162 238 
 42 239 162 
 135 240 205 
 241 205 240 
 242 243 244 
 245 197 246 
 5 39 41 
 45 156 247 
 248 33 7 
 249 232 68 
 250 149 148 
 251 252 253 
 254 255 172 
 256 255 254 
 257 49 258 
 259 258 49 
 31 260 261 
 218 262 219 
 263 40 264 
 39 264 40 
 265 24 232 
 218 266 262 
 167 181 105 
 132 79 85 
 219 267 220 
 268 236 235 
 269 68 26 
 270 271 272 
 180 273 274 
 131 130 275 
 276 215 156 
 277 278 279 
 196 246 197 
 280 281 200 
 180 274 63 
 196 198 282 
 199 201 283 
 64 66 284 
 14 34 4 
 93 95 285 
 286 56 51 
 21 23 287 
 137 139 288 
 289 143 151 
 167 105 290 
 150 291 151 
 289 151 291 
 268 292 80 
 293 294 202 
 295 294 293 
 296 297 298 
 117 115 299 
 278 300 279 
 301 29 28 
 107 105 181 
 14 302 13 
 246 303 304 
 256 305 306 
 119 169 48 
 46 48 169 
 78 299 85 
 118 307 20 
 308 306 305 
 190 13 309 
 218 183 236 
 310 10 9 
 37 311 57 
 104 106 312 
 301 312 106 
 248 228 252 
 248 313 228 
 257 258 314 
 315 20 307 
 190 261 260 
 316 146 133 
 257 314 123 
 102 317 139 
 318 303 246 
 319 320 321 
 322 321 320 
 296 298 222 
 100 98 149 
 64 273 65 
 270 323 271 
 324 80 79 
 276 155 8 
 64 284 274 
 111 113 306 
 179 325 326 
 87 327 328 
 186 329 330 
 160 267 161 
 207 331 208 
 270 77 332 
 204 290 105 
 276 233 215 
 333 161 219 
 334 284 66 
 179 139 335 
 336 337 142 
 14 230 338 
 339 57 332 
 340 341 177 
 342 177 341 
 339 38 57 
 259 285 95 
 343 344 345 
 172 20 346 
 135 203 91 
 324 79 347 
 89 347 79 
 259 95 348 
 349 350 351 
 241 240 352 
 249 153 353 
 219 161 267 
 53 55 237 
 354 163 283 
 270 103 77 
 5 33 39 
 78 80 292 
 301 106 120 
 115 85 299 
 355 343 345 
 242 244 351 
 37 95 94 
 37 36 95 
 50 52 331 
 170 125 356 
 218 236 266 
 357 253 252 
 221 171 178 
 89 16 358 
 150 359 360 
 150 360 168 
 361 112 362 
 199 363 200 
 280 200 363 
 333 219 262 
 73 287 364 
 340 328 327 
 100 149 121 
 315 220 267 
 324 365 366 
 339 185 367 
 184 367 185 
 324 347 365 
 241 326 325 
 107 120 106 
 342 368 189 
 250 148 369 
 187 362 370 
 170 171 371 
 271 372 272 
 251 373 252 
 74 206 374 
 73 364 192 
 78 292 299 
 368 375 189 
 376 211 377 
 210 377 211 
 208 331 378 
 263 371 40 
 379 380 381 
 382 383 384 
 385 386 278 
 387 380 379 
 388 389 390 
 215 391 156 
 14 192 34 
 175 177 392 
 140 294 209 
 389 393 390 
 277 323 278 
 385 278 323 
 310 152 394 
 385 311 386 
 395 166 109 
 270 396 323 
 397 398 62 
 214 216 399 
 250 369 400 
 21 148 59 
 276 156 155 
 401 341 402 
 340 402 341 
 403 404 255 
 265 232 405 
 108 351 350 
 73 72 287 
 113 406 306 
 70 274 284 
 221 223 171 
 157 96 407 
 128 126 408 
 74 407 96 
 409 304 303 
 214 399 330 
 336 142 229 
 193 43 164 
 45 247 44 
 114 116 153 
 141 335 139 
 199 283 410 
 322 224 321 
 411 412 413 
 129 414 402 
 251 408 126 
 42 44 239 
 122 415 123 
 333 374 206 
 21 287 416 
 179 335 325 
 417 321 418 
 111 370 362 
 259 359 285 
 147 98 355 
 45 419 155 
 420 421 155 
 318 422 51 
 150 423 359 
 151 143 337 
 57 311 396 
 424 16 425 
 426 367 314 
 334 427 363 
 53 428 54 
 429 430 431 
 93 9 173 
 159 198 197 
 233 10 394 
 276 10 233 
 46 168 360 
 339 367 38 
 83 142 337 
 388 275 130 
 192 12 432 
 433 434 48 
 54 428 435 
 214 330 436 
 387 436 330 
 248 373 33 
 333 206 234 
 401 402 414 
 387 330 329 
 339 332 437 
 150 152 423 
 119 48 434 
 417 438 321 
 81 439 389 
 204 389 439 
 440 84 124 
 186 399 392 
 441 272 372 
 349 351 244 
 73 192 432 
 409 212 442 
 196 282 443 
 444 443 282 
 280 363 427 
 248 7 313 
 445 446 408 
 119 447 120 
 18 60 404 
 159 75 96 
 367 448 314 
 147 355 345 
 151 449 152 
 450 451 452 
 186 392 189 
 119 181 169 
 187 189 375 
 74 374 407 
 180 62 398 
 411 453 454 
 204 145 393 
 286 51 422 
 87 328 82 
 319 321 455 
 193 164 76 
 20 456 346 
 301 28 312 
 457 458 459 
 124 84 460 
 417 76 75 
 461 413 412 
 342 392 177 
 97 462 98 
 31 84 260 
 117 405 232 
 243 459 458 
 77 437 332 
 170 356 32 
 463 346 238 
 160 238 346 
 263 464 371 
 186 188 329 
 420 155 419 
 263 373 465 
 251 465 373 
 340 177 328 
 134 328 177 
 122 466 467 
 468 467 466 
 269 469 68 
 382 384 470 
 259 471 359 
 401 472 341 
 35 473 2 
 155 421 8 
 249 68 469 
 241 325 205 
 202 205 325 
 93 285 423 
 359 423 285 
 167 474 168 
 150 168 291 
 318 246 422 
 190 260 191 
 440 191 260 
 424 158 358 
 310 475 152 
 476 120 447 
 61 477 478 
 457 459 479 
 214 391 215 
 463 238 381 
 420 195 194 
 480 481 482 
 104 312 144 
 250 400 483 
 182 94 173 
 344 431 430 
 81 143 439 
 289 439 143 
 450 484 279 
 152 449 394 
 485 486 487 
 385 396 311 
 265 478 477 
 57 396 332 
 207 209 488 
 485 489 486 
 287 23 364 
 35 364 23 
 490 208 378 
 141 325 335 
 490 470 384 
 83 337 143 
 491 483 400 
 342 472 368 
 403 406 113 
 301 120 29 
 170 464 126 
 58 8 421 
 409 454 212 
 162 161 234 
 420 452 451 
 184 231 492 
 202 325 293 
 141 293 325 
 119 434 447 
 158 493 358 
 397 299 292 
 263 465 464 
 376 494 211 
 280 427 495 
 42 165 43 
 496 2 473 
 251 126 465 
 93 475 9 
 131 275 497 
 125 466 356 
 498 447 434 
 485 483 489 
 491 489 483 
 499 279 484 
 238 500 381 
 204 439 290 
 289 290 439 
 206 165 234 
 42 234 165 
 136 432 12 
 268 398 292 
 147 59 148 
 476 29 120 
 424 425 282 
 444 282 425 
 270 272 103 
 501 103 272 
 30 356 466 
 496 502 2 
 3 2 502 
 503 504 390 
 497 390 504 
 70 284 410 
 199 410 284 
 433 48 47 
 445 408 253 
 187 370 188 
 461 303 505 
 69 86 63 
 349 1 350 
 132 17 79 
 89 79 17 
 420 194 452 
 420 419 195 
 450 452 484 
 70 63 274 
 480 506 166 
 196 422 246 
 507 99 508 
 100 508 99 
 204 393 389 
 424 282 198 
 21 369 148 
 268 80 509 
 110 166 506 
 436 379 510 
 342 341 472 
 511 247 156 
 35 23 473 
 210 454 453 
 46 471 49 
 257 47 49 
 180 235 273 
 411 454 412 
 180 398 235 
 193 76 418 
 457 302 338 
 403 255 406 
 64 274 273 
 256 406 255 
 21 512 369 
 140 91 203 
 333 234 161 
 159 513 75 
 457 338 458 
 74 76 164 
 286 443 514 
 213 492 124 
 440 124 492 
 495 427 19 
 444 383 514 
 81 389 88 
 388 88 389 
 14 338 302 
 268 509 236 
 245 513 197 
 61 86 515 
 31 261 516 
 354 435 163 
 58 421 451 
 321 224 418 
 499 211 494 
 511 156 391 
 58 173 9 
 479 459 297 
 511 436 510 
 395 109 502 
 3 502 109 
 322 194 224 
 476 517 27 
 518 27 517 
 319 212 225 
 349 458 338 
 245 246 304 
 498 519 447 
 265 405 478 
 190 309 479 
 214 436 391 
 511 391 436 
 87 88 130 
 388 130 88 
 250 121 149 
 248 252 373 
 46 360 471 
 376 377 520 
 322 452 194 
 450 174 451 
 45 195 419 
 277 279 494 
 499 494 279 
 286 422 443 
 196 443 422 
 310 394 10 
 276 8 10 
 521 239 510 
 44 510 239 
 172 346 254 
 463 254 346 
 496 473 522 
 334 363 284 
 501 72 103 
 89 493 347 
 157 347 493 
 424 198 158 
 322 484 452 
 250 483 121 
 426 258 348 
 333 523 374 
 25 515 237 
 53 237 515 
 286 514 56 
 441 524 272 
 501 272 524 
 98 462 355 
 30 32 356 
 43 165 164 
 160 346 456 
 319 442 212 
 361 375 368 
 182 386 94 
 58 451 174 
 440 231 191 
 11 191 231 
 373 264 33 
 336 233 394 
 31 178 32 
 108 350 109 
 3 109 350 
 450 279 300 
 296 261 479 
 190 479 261 
 417 513 438 
 111 362 112 
 507 508 326 
 179 326 508 
 476 447 519 
 102 121 483 
 322 320 484 
 499 484 320 
 245 438 513 
 21 416 512 
 376 520 372 
 128 408 446 
 397 62 478 
 245 442 455 
 315 456 20 
 503 390 393 
 308 370 306 
 134 176 142 
 217 142 176 
 159 197 513 
 277 525 323 
 336 229 233 
 61 515 477 
 457 479 309 
 526 400 369 
 157 407 365 
 527 365 407 
 134 82 328 
 129 402 327 
 527 407 374 
 257 415 47 
 433 47 415 
 499 225 211 
 263 264 373 
 426 314 258 
 209 294 488 
 25 477 515 
 157 493 158 
 349 338 230 
 159 158 198 
 433 528 434 
 404 60 255 
 100 101 508 
 266 366 523 
 199 284 363 
 296 222 516 
 221 516 222 
 213 123 314 
 271 323 525 
 426 36 38 
 226 228 313 
 463 380 305 
 357 252 228 
 498 434 528 
 426 348 36 
 287 72 416 
 411 413 487 
 308 188 370 
 170 371 464 
 125 127 466 
 515 86 428 
 22 522 473 
 3 350 1 
 245 455 438 
 357 228 227 
 182 300 278 
 318 505 303 
 213 448 492 
 184 492 448 
 461 412 303 
 296 479 297 
 340 327 402 
 359 471 360 
 52 378 331 
 182 278 386 
 175 392 399 
 308 380 329 
 387 329 380 
 140 203 294 
 69 163 435 
 445 253 529 
 357 529 253 
 111 306 370 
 463 381 380 
 217 229 142 
 280 495 281 
 468 466 127 
 175 216 176 
 217 176 216 
 445 519 446 
 245 304 442 
 167 169 181 
 440 260 84 
 289 474 290 
 30 460 84 
 259 348 258 
 354 54 435 
 53 515 428 
 461 530 413 
 132 146 17 
 15 17 146 
 376 372 525 
 271 525 372 
 193 418 224 
 463 305 254 
 175 399 216 
 37 94 386 
 485 317 483 
 102 483 317 
 457 309 302 
 321 438 455 
 461 531 530 
 532 355 462 
 22 473 23 
 385 323 396 
 117 232 353 
 521 510 379 
 308 329 188 
 122 124 460 
 527 366 365 
 35 34 364 
 192 364 34 
 69 435 428 
 152 475 423 
 518 517 529 
 445 529 517 
 308 305 380 
 527 523 366 
 128 533 127 
 498 446 519 
 444 514 443 
 37 386 311 
 397 405 299 
 157 365 347 
 441 534 535 
 117 353 116 
 417 75 513 
 259 49 471 
 342 189 392 
 382 514 383 
 441 520 534 
 256 306 406 
 87 130 327 
 129 327 130 
 527 374 523 
 536 520 377 
 184 448 367 
 22 345 522 
 243 458 244 
 349 244 458 
 266 523 262 
 376 525 494 
 283 163 410 
 70 410 163 
 445 517 519 
 266 509 366 
 397 478 405 
 167 290 474 
 499 320 225 
 95 36 348 
 336 394 449 
 532 431 343 
 344 343 431 
 210 212 454 
 324 509 80 
 266 236 509 
 334 537 427 
 118 427 537 
 387 379 436 
 536 377 453 
 122 460 466 
 30 466 460 
 295 488 294 
 440 492 231 
 426 38 367 
 397 292 398 
 433 467 528 
 468 528 467 
 480 482 506 
 319 225 320 
 117 299 405 
 476 27 29 
 518 529 227 
 61 478 62 
 319 455 442 
 202 294 203 
 409 412 454 
 409 442 304 
 22 59 345 
 485 487 288 
 137 288 487 
 256 254 305 
 424 358 16 
 50 538 531 
 539 531 538 
 526 369 512 
 324 366 509 
 172 255 60 
 420 451 421 
 270 332 396 
 39 33 264 
 207 538 331 
 476 519 517 
 186 330 399 
 441 372 520 
 257 123 415 
 382 56 514 
 289 291 474 
 69 428 86 
 532 343 355 
 122 467 415 
 433 415 467 
 344 522 345 
 310 9 475 
 128 446 533 
 44 247 510 
 511 510 247 
 210 453 377 
 521 381 500 
 136 185 437 
 339 437 185 
 13 302 309 
 507 326 352 
 241 352 326 
 526 524 535 
 441 535 524 
 268 235 398 
 162 500 238 
 137 487 413 
 50 531 505 
 277 494 525 
 18 495 19 
 417 418 76 
 501 416 72 
 461 505 531 
 468 127 533 
 496 430 540 
 93 423 475 
 221 178 516 
 31 516 178 
 411 487 486 
 65 273 235 
 296 516 261 
 382 470 56 
 52 56 470 
 536 453 486 
 521 379 381 
 147 345 59 
 50 505 51 
 295 293 541 
 141 541 293 
 251 253 408 
 480 542 481 
 429 481 542 
 521 500 239 
 162 239 500 
 491 534 489 
 536 489 534 
 179 508 101 
 168 474 291 
 450 300 174 
 182 174 300 
 207 543 538 
 89 358 493 
 496 522 430 
 213 314 448 
 536 486 489 
 429 540 430 
 295 543 488 
 207 488 543 
 50 331 538 
 136 71 432 
 73 432 71 
 249 353 232 
 409 303 412 
 395 502 540 
 496 540 502 
 333 262 523 
 357 227 529 
 318 51 505 
 539 530 531 
 67 220 307 
 315 307 220 
 187 375 362 
 361 362 375 
 526 535 400 
 491 400 535 
 411 486 453 
 137 413 530 
 114 544 133 
 316 133 544 
 395 540 542 
 429 542 540 
 126 464 465 
 118 19 427 
 153 116 353 
 67 537 66 
 334 66 537 
 118 537 307 
 265 477 24 
 25 24 477 
 498 533 446 
 349 230 1 
 526 512 524 
 501 524 512 
 67 183 220 
 539 543 541 
 344 430 522 
 501 512 416 
 485 288 317 
 139 317 288 
 218 220 183 
 497 275 390 
 388 390 275 
 536 534 520 
 336 449 337 
 151 337 449 
 490 378 470 
 52 470 378 
 491 535 534 
 480 166 542 
 539 138 530 
 395 542 166 
 295 541 543 
 498 528 533 
 4 1 230 
 468 533 528 
 539 541 138 
 539 538 543 
 137 530 138 
 67 307 537 
 77 71 437 
 136 437 71 
 160 456 267 
 315 267 456 
 141 138 541 
 114 154 544 
